/*--------------------------------*- C++ -*----------------------------------*\
| =========                 |                                                 |
| \\      /  F ield         | OpenFOAM: The Open Source CFD Toolbox           |
|  \\    /   O peration     | Version:  v2012                                 |
|   \\  /    A nd           | Website:  www.openfoam.com                      |
|    \\/     M anipulation  |                                                 |
\*---------------------------------------------------------------------------*/
FoamFile
{
    version     2.0;
    format      ascii;
    class       volScalarField;
    location    "1";
    object      alpha.water;
}
// * * * * * * * * * * * * * * * * * * * * * * * * * * * * * * * * * * * * * //

dimensions      [0 0 0 0 0 0 0];


internalField   nonuniform List<scalar> 
2268
(
1
1
1
1
1
1
1
1
1
1
1
0.999998
0.999993
0.994394
0.970999
0.968331
0.968324
0.968374
0.968522
0.968558
0.968566
0.975799
0.998075
1
1
1
1
1
1
1
1
1
1
1
0.999998
0.999994
0.999998
0.99975
0.995748
0.992513
0.992261
0.993388
0.994549
0.994273
0.993143
0.998053
1
1
1
1
1
1
1
1
1
1
1
1
1
1
1
1
1
1
1
0.999999
0.999999
0.999999
0.999318
1
1
1
1
1
1
1
1
1
1
1
1
1
1
1
1
1
1
0.999999
0.999999
0.999999
0.999974
0.999692
1
1
1
1
1
1
1
1
1
1
1
1
1
1
1
1
0.999999
0.999997
0.999995
0.999995
0.999999
0.999901
0.99967
1
1
1
1
1
1
1
1
1
1
1
1
1
1
0.999999
0.999997
0.999987
0.999963
0.999945
0.999958
0.999992
0.999898
0.999851
1
1
1
1
1
1
1
1
1
1
1
1
0.999999
0.999998
0.999992
0.999979
0.999924
0.999759
0.999596
0.999675
0.99994
0.999896
0.999898
1
1
1
1
1
1
1
1
1
1
1
0.999999
0.999996
0.999987
0.999941
0.999765
0.999249
0.998287
0.997291
0.997851
0.997452
0.99456
0.999897
0.565152
0.79628
0.995998
0.995927
0.981466
0.957224
0.957224
0.957112
0.960649
0.975478
0.967398
0.946646
0.937422
0.917272
0.915822
0.915817
0.915822
0.925652
0.956237
0.72728
0.951397
0.995934
0.995999
0.995817
0.994928
0.9903
0.986179
0.983974
0.983221
0.982037
0.985392
0.986407
0.987283
0.929598
0.915814
0.91617
0.926249
0.958341
0.956348
0.99522
0.995934
0.995916
0.933146
0.810057
0.828337
0.894903
0.896518
0.850485
0.866473
0.966337
0.990047
0.992655
0.992655
0.971307
0.958934
0.958593
0.95848
0.990031
0.992378
0.995265
0.84843
0.274379
0.200343
0.194993
0.234523
0.251095
0.19338
0.276669
0.510728
0.697947
0.966393
0.992655
0.991831
0.990996
0.947374
0.909243
0.989605
0.990169
0.947471
0.382048
0.193696
0.180656
0.1438
0.113028
0.113095
0.113095
0.128789
0.26828
0.360296
0.683914
0.986651
0.990996
0.875006
0.452565
0.242104
0.989361
0.989314
0.838799
0.221477
0.203665
0.672145
0.656077
0.126728
0.11302
0.113896
0.563942
0.607531
0.522341
0.52294
0.724276
0.879944
0.560383
0.090484
0.0550525
0.989068
0.988419
0.690705
0.241665
0.537333
0.683165
0.682963
0.550934
0.121809
0.113666
0.581873
0.608496
0.60798
0.608095
0.324242
0.305816
0.127506
0.0520125
0.0541174
0.988693
0.960956
0.371876
0.274544
0.681117
0.682959
0.683492
0.683492
0.169688
0.114438
0.335062
0.608561
0.608523
0.607034
0.602668
0.168718
0.0558394
0.0541174
0.0546706
1
1
1
1
1
1
1
1
1
1
1
0.999991
0.999966
0.999845
0.996877
0.940034
0.821125
0.731502
0.713742
0.902234
0.987395
0.985703
0.948869
1
1
1
1
1
1
1
1
1
0.999999
0.999995
0.999931
0.998883
0.944581
0.671302
0.307251
0.131873
0.080044
0.112306
0.647877
0.984676
0.98389
0.960924
1
1
1
1
1
1
1
1
0.999997
0.999976
0.999813
0.959741
0.735268
0.252753
0.0334293
0.0252544
0.0241179
0.0200641
0.0328913
0.409275
0.978228
0.979985
0.976154
1
1
1
1
1
0.980687
0.925696
0.862519
0.799902
0.731284
0.618751
0.378022
0.109934
0.0350263
0.0282221
0.0254178
0.0210101
0.0167239
0.0149777
0.097703
0.653037
0.976879
0.975344
0.910911
0.901186
0.845102
0.744746
0.600709
0.430298
0.289375
0.194609
0.136691
0.092286
0.0690032
0.0725785
0.0905693
0.0905073
0.0883389
0.0866248
0.0280679
0.0143905
0.0118018
0.0115446
0.0822459
0.723998
0.97252
0.198981
0.197372
0.15396
0.0876244
0.0336337
0.00900133
0.00534939
0.00511119
0.00505113
0.00550426
0.0112827
0.0675246
0.0903018
0.0888183
0.0883636
0.0862154
0.0736718
0.013814
0.0115489
0.0103474
0.00889535
0.00854079
0.269808
0.000536299
0.000790907
0.001174
0.00131855
0.00130605
0.00134083
0.00144096
0.00155206
0.00170246
0.00184126
0.0030571
0.019792
0.0359636
0.0575166
0.0784171
0.082931
0.0780578
0.0542285
0.0127145
0.00892179
0.00860135
0.0084906
0.00859321
7.24049e-05
0.000122602
0.000202486
0.000250133
0.000289473
0.000362958
0.000438046
0.000519091
0.000618643
0.000716108
0.000791833
0.000369276
0.000143276
9.71458e-05
0.00024462
0.00349895
0.0388122
0.0567391
0.0530928
0.0485506
0.0116291
0.00989591
0.00858284
1.16788e-05
2.16882e-05
4.05391e-05
5.59284e-05
6.99534e-05
9.02066e-05
0.000119411
0.000153679
0.00018673
0.000217688
0.000206419
0.000109491
3.75402e-05
2.05193e-05
1.79213e-05
6.52667e-05
0.00025261
0.0183825
0.0510821
0.0482791
0.0460172
0.045463
0.0212683
2.02135e-06
3.99381e-06
7.89742e-06
1.16942e-05
1.57754e-05
2.2212e-05
3.23868e-05
4.46936e-05
5.58744e-05
6.41413e-05
6.29258e-05
4.26016e-05
1.79381e-05
6.02946e-06
3.06689e-06
-1.49014e-06
5.38859e-06
2.37368e-05
0.00121313
0.0333626
0.045469
0.0430328
0.0449752
3.78315e-07
7.74178e-07
1.58025e-06
2.45003e-06
3.50195e-06
5.36782e-06
8.27938e-06
1.21252e-05
1.58231e-05
1.81803e-05
1.82374e-05
1.36764e-05
8.06983e-06
2.83085e-06
9.25372e-07
2.8089e-07
-1.98788e-07
-4.57017e-06
-1.45752e-06
-3.68488e-05
0.0029798
0.0173734
0.00381138
7.37137e-08
1.5426e-07
3.18804e-07
5.07955e-07
7.76092e-07
1.23942e-06
1.99256e-06
3.03672e-06
4.10095e-06
4.73962e-06
4.82594e-06
3.85411e-06
3.6097e-06
1.71464e-06
3.26996e-07
9.72005e-08
-1.00052e-09
-2.92594e-09
-4.59588e-08
-6.2192e-08
-3.14079e-10
-5.32423e-09
-2.6977e-08
1.48871e-08
3.14103e-08
6.44992e-08
1.04657e-07
1.6682e-07
2.72335e-07
4.48254e-07
7.01482e-07
9.72649e-07
1.13583e-06
1.1637e-06
9.48833e-07
9.61799e-07
8.18524e-07
2.57407e-07
3.62571e-08
1.22585e-08
2.75787e-08
1.0152e-08
1.77563e-09
5.72772e-09
4.08399e-09
1.97781e-09
3.2981e-09
6.71672e-09
1.32299e-08
2.16192e-08
3.45691e-08
5.68146e-08
9.45431e-08
1.50152e-07
2.11663e-07
2.51028e-07
2.56364e-07
2.19549e-07
1.27187e-07
1.57507e-07
1.31274e-07
3.45041e-08
6.47474e-09
8.42892e-09
9.50102e-09
1.31309e-08
1.31311e-08
1.19106e-08
5.24816e-09
8.43772e-10
1.62964e-09
2.94412e-09
4.4265e-09
6.92106e-09
1.12907e-08
1.87702e-08
2.99106e-08
4.23657e-08
5.06338e-08
5.11654e-08
4.56621e-08
2.94169e-08
1.42029e-08
2.01575e-08
1.59012e-08
5.37883e-09
2.04828e-09
1.86736e-09
1.71831e-09
1.82332e-09
1.65962e-09
3.48621e-09
2.46898e-10
4.29141e-10
7.44188e-10
1.07183e-09
1.46496e-09
2.1407e-09
3.51203e-09
5.53837e-09
7.80164e-09
9.33437e-09
9.49825e-09
8.66036e-09
6.40034e-09
3.40073e-09
2.42088e-09
2.985e-09
2.35969e-09
1.34562e-09
8.80662e-10
6.76843e-10
5.12971e-10
2.54001e-10
2.18873e-10
1.16205e-10
1.71681e-10
1.93191e-10
2.55148e-10
3.50316e-10
4.92215e-10
6.9883e-10
9.85297e-10
1.33554e-09
1.67507e-09
1.80774e-09
1.67236e-09
1.26006e-09
9.01697e-10
8.58826e-10
8.82951e-10
7.94525e-10
5.46604e-10
3.65965e-10
2.87195e-10
2.46535e-10
2.35587e-10
1.95628e-10
4.02679e-11
6.32179e-11
7.84932e-11
9.19805e-11
1.00578e-10
1.0925e-10
1.43676e-10
2.00598e-10
2.69235e-10
3.29724e-10
3.44295e-10
2.98935e-10
2.80512e-10
3.2473e-10
3.30464e-10
2.81154e-10
1.98564e-10
1.23028e-10
8.41205e-11
7.29103e-11
7.22936e-11
6.88825e-11
6.2144e-11
8.50091e-12
1.54136e-11
2.27363e-11
2.72679e-11
3.04637e-11
3.37368e-11
3.78206e-11
3.96581e-11
4.24286e-11
4.80192e-11
5.172e-11
6.67255e-11
7.96709e-11
7.93006e-11
5.96267e-11
3.5524e-11
1.94892e-11
1.02495e-11
6.33701e-12
6.68649e-12
8.45421e-12
1.1439e-11
1.21193e-11
1.43897e-12
2.76356e-12
4.03877e-12
5.09382e-12
6.08774e-12
7.16653e-12
7.85089e-12
7.94345e-12
7.94686e-12
8.65717e-12
8.38577e-12
6.51559e-12
5.86328e-12
3.96623e-12
1.17192e-12
0
-3.2989e-12
-4.63503e-12
-3.6187e-12
-2.10648e-12
-8.97631e-13
-7.2132e-14
6.47355e-13
2.22389e-13
4.44072e-13
6.2453e-13
7.55671e-13
8.65742e-13
9.41659e-13
9.18886e-13
7.26103e-13
2.19076e-13
3.69123e-13
1.68664e-13
0
-6.11133e-12
-1.19609e-11
-1.53689e-11
-1.57557e-11
-1.36515e-11
-1.03027e-11
-6.9154e-12
-4.19533e-12
-2.27791e-12
-1.10956e-12
-4.71619e-13
3.2022e-14
6.63511e-14
8.99509e-14
1.04315e-13
1.10954e-13
9.46561e-14
4.59366e-14
0
-1.24231e-13
-1.43899e-12
-3.57566e-12
-6.55736e-12
-9.6349e-12
-1.17788e-11
-1.2282e-11
-1.11197e-11
-8.89043e-12
-6.36391e-12
-4.12349e-12
-2.439e-12
-1.33331e-12
-6.75135e-13
-3.16658e-13
4.25505e-15
9.14479e-15
1.19663e-14
1.32251e-14
1.22578e-14
5.58238e-15
0
-1.66958e-13
-6.15157e-13
-1.36474e-12
-2.40068e-12
-3.59939e-12
-4.66886e-12
-5.25941e-12
-5.17869e-12
-4.49277e-12
-3.46548e-12
-2.3942e-12
-1.48995e-12
-8.44787e-13
-4.49271e-13
-2.24229e-13
-1.05187e-13
5.19773e-16
1.15639e-15
1.45916e-15
1.5064e-15
9.96465e-16
3.31322e-31
-2.59582e-14
-1.13009e-13
-2.7966e-13
-5.35565e-13
-8.64098e-13
-1.21172e-12
-1.48764e-12
-1.60168e-12
-1.51765e-12
-1.27039e-12
-9.42641e-13
-6.21168e-13
-3.63649e-13
-1.94745e-13
-9.87213e-14
-4.7387e-14
-2.15718e-14
5.83345e-17
1.34089e-16
1.62509e-16
1.46563e-16
4.13981e-17
-1.67225e-15
-1.30636e-14
-3.94985e-14
-8.50812e-14
-1.50353e-13
-2.28595e-13
-3.04557e-13
-3.56714e-13
-3.67526e-13
-3.33504e-13
-2.66439e-13
-1.86951e-13
-1.14713e-13
-6.10294e-14
-3.05776e-14
-1.45475e-14
-6.59398e-15
-2.85187e-15
6.00946e-18
1.42533e-17
1.64195e-17
1.21769e-17
1.29422e-33
-9.17612e-16
-4.04225e-15
-1.03536e-14
-2.03247e-14
-3.35654e-14
-4.81682e-14
-6.07969e-14
-6.75188e-14
-6.59056e-14
-5.64368e-14
-4.21671e-14
-2.72283e-14
-1.49984e-14
-7.12098e-15
-3.26065e-15
-1.43101e-15
-6.02017e-16
-2.4053e-16
5.67476e-19
1.3881e-18
1.47964e-18
7.66208e-19
-2.66984e-17
-2.80253e-16
-9.69318e-16
-2.2129e-15
-4.00962e-15
-6.18989e-15
-8.33958e-15
-9.88453e-15
-1.02843e-14
-9.35818e-15
-7.40096e-15
-5.02442e-15
-2.87057e-15
-1.33604e-15
-5.68249e-16
-2.33151e-16
-9.24014e-17
-3.52601e-17
-1.06059e-17
4.90597e-20
1.23636e-19
1.17447e-19
2.34279e-20
-1.04428e-17
-6.50738e-17
-1.92118e-16
-3.98094e-16
-6.67351e-16
-9.58854e-16
-1.20266e-15
-1.32272e-15
-1.26908e-15
-1.05401e-15
-7.4815e-16
-4.43507e-16
-2.11394e-16
-8.01982e-17
-2.99336e-17
-1.08515e-17
-3.80972e-18
-1.21616e-18
1.91017e-18
3.88026e-21
1.00345e-20
8.54126e-21
-4.43995e-20
-2.61201e-18
-1.24183e-17
-3.23304e-17
-6.11954e-17
-9.47018e-17
-1.2578e-16
-1.4534e-16
-1.46211e-16
-1.2688e-16
-9.36661e-17
-5.7475e-17
-2.81183e-17
-1.01104e-17
-3.30341e-18
-1.0489e-18
-3.25299e-19
-9.69974e-20
1.96868e-20
2.85894e-18
2.80796e-22
7.38504e-22
5.62435e-22
-3.20864e-20
-5.10998e-19
-2.01083e-18
-4.684e-18
-8.10614e-18
-1.15259e-17
-1.40307e-17
-1.4754e-17
-1.33493e-17
-1.02367e-17
-6.49744e-18
-3.27738e-18
-1.21562e-18
-3.30454e-19
-8.96938e-20
-2.40069e-20
-6.28212e-21
-7.97181e-22
7.18887e-20
2.19329e-18
1.86099e-23
4.92781e-23
2.79156e-23
-8.34642e-21
-8.3171e-20
-2.80912e-19
-5.89198e-19
-9.30379e-19
-1.20775e-18
-1.33414e-18
-1.25888e-18
-1.00455e-18
-6.61872e-19
-3.46247e-19
-1.33872e-19
-3.26418e-20
-7.62211e-21
-1.72072e-21
-3.78675e-22
-7.95807e-23
8.44544e-22
4.69156e-20
1.13198e-18
1.1316e-24
2.91115e-24
5.96369e-25
-1.55671e-21
-1.15846e-20
-3.42112e-20
-6.47457e-20
-9.29262e-20
-1.09296e-19
-1.08328e-19
-9.02671e-20
-6.20915e-20
-3.39742e-20
-1.38676e-20
-3.71378e-21
-6.88295e-22
-1.26743e-22
-2.3184e-23
-4.18953e-24
-3.0032e-25
3.79193e-22
1.86785e-20
4.09678e-19
6.32638e-26
1.58987e-25
-8.81759e-25
-2.34885e-22
-1.40357e-21
-3.66068e-21
-6.24856e-21
-8.1102e-21
-8.56837e-21
-7.52422e-21
-5.43745e-21
-3.13932e-21
-1.36833e-21
-4.05489e-22
-6.55084e-23
-1.04456e-23
-1.62322e-24
-2.4585e-25
-3.63877e-26
9.07358e-26
9.20624e-23
4.77186e-21
1.21915e-19
3.238e-27
7.93379e-27
-5.66022e-25
-3.00467e-23
-1.4964e-22
-3.46536e-22
-5.32467e-22
-6.21272e-22
-5.83999e-22
-4.48071e-22
-2.75138e-22
-1.29248e-22
-4.26434e-23
-8.34329e-24
-1.04562e-24
-1.30097e-25
-1.61114e-26
-1.98206e-27
-2.40858e-28
3.20493e-27
1.28286e-23
9.03361e-22
3.40022e-20
1.5088e-28
3.31334e-28
-1.14044e-25
-3.34235e-24
-1.41749e-23
-2.92239e-23
-4.03013e-23
-4.19928e-23
-3.4761e-23
-2.2949e-23
-1.17024e-23
-4.31389e-24
-1.01246e-24
-1.15781e-25
-1.24835e-26
-1.31482e-27
-1.35501e-28
-1.36894e-29
-1.32881e-30
3.86934e-29
1.19659e-24
1.41321e-22
7.68904e-21
5.87052e-30
6.98191e-30
-1.64412e-26
-3.28959e-25
-1.20401e-24
-2.21195e-24
-2.72786e-24
-2.52048e-24
-1.81734e-24
-1.01548e-24
-4.1917e-25
-1.163e-25
-1.80433e-26
-1.49521e-27
-1.24728e-28
-1.04459e-29
-8.72885e-31
-7.23226e-32
-3.32308e-33
2.6532e-29
9.36777e-26
1.66606e-23
1.0881e-21
1.0664e-31
0
-1.94071e-27
-2.9048e-26
-9.25565e-26
-1.5151e-25
-1.66437e-25
-1.35391e-25
-8.40762e-26
-3.90716e-26
-1.26937e-26
-2.5285e-27
-2.39619e-28
-1.64935e-29
-1.1218e-30
-7.53946e-32
-5.00625e-33
-3.27769e-34
3.88048e-33
5.80734e-29
9.4851e-27
1.25537e-24
9.5472e-23
0
-1.9293e-30
-1.98027e-28
-2.32988e-27
-6.5013e-27
-9.4769e-27
-9.23799e-27
-6.57037e-27
-3.47522e-27
-1.31927e-27
-3.27361e-28
-4.44755e-29
-2.46586e-30
-1.37943e-31
-7.64608e-33
-4.16678e-34
-2.22504e-35
-1.13833e-36
5.58823e-33
5.81092e-29
1.51827e-27
5.81303e-26
4.98279e-24
-3.01584e-32
-3.9133e-31
-1.80067e-29
-1.71673e-28
-4.21334e-28
-5.46612e-28
-4.71289e-28
-2.91325e-28
-1.29942e-28
-3.96173e-29
-7.28481e-30
-6.41575e-31
-2.61345e-32
-1.07681e-33
-4.44571e-35
-1.82172e-36
-7.3572e-38
-1.67066e-39
2.31044e-33
3.47089e-30
1.38289e-28
1.37996e-27
5.26226e-26
-6.37046e-33
-5.15682e-32
-1.48888e-30
-1.17403e-29
-2.54355e-29
-2.9367e-29
-2.23495e-29
-1.1958e-29
-4.46562e-30
-1.079e-30
-1.43232e-31
-7.84746e-33
-2.43548e-34
-7.45519e-36
-2.22285e-37
-6.43829e-39
-1.81379e-40
-4.74565e-42
1.24615e-38
5.618e-33
9.50368e-31
1.25651e-29
4.44138e-29
-8.8079e-34
-5.53416e-33
-1.13579e-31
-7.52063e-31
-1.44343e-30
-1.48434e-30
-9.96748e-31
-4.6111e-31
-1.43897e-31
-2.74425e-32
-2.60091e-33
-8.70906e-35
-1.93949e-36
-4.08432e-38
-7.92435e-40
-1.43398e-41
-2.45624e-43
-4.02531e-45
2.2599e-43
2.26732e-36
3.22568e-33
8.5852e-32
2.77481e-31
-1.00057e-34
-5.198e-34
-8.08749e-33
-4.55053e-32
-7.76305e-32
-7.12133e-32
-4.22613e-32
-1.69544e-32
-4.45008e-33
-6.7975e-34
-4.76059e-35
-1.0433e-36
-1.36231e-38
-1.33919e-40
-1.0704e-42
-7.43787e-45
-4.67345e-47
-2.72099e-49
-1.48908e-51
2.16078e-50
6.32725e-44
3.75036e-41
4.61429e-40
0.895618
0.895618
0.954534
0.983953
0.91891
0.964075
0.976507
0.982148
0.973212
0.975028
0.978549
0.904957
0.975215
0.975453
0.978532
0.893602
0.97449
0.973793
0.975462
0.972656
0.724367
0.73577
0.603046
0.498729
0.0085216
0.0086817
0.00964802
0.0151739
0.00868651
0.00969128
0.0106786
0.0118203
0.0145422
0.0261363
0.0281548
0.0226106
0.0455612
0.045926
0.0459232
0.0459276
0.000952605
0.00825784
0.0375401
0.0442625
-1.08382e-07
-2.44372e-07
-4.70045e-07
-4.54852e-07
1.53035e-09
1.28096e-09
4.995e-10
7.25216e-10
4.98179e-09
4.60178e-09
3.23847e-09
1.76261e-09
3.95258e-09
3.98073e-09
2.89459e-09
9.73795e-10
3.73246e-10
4.19517e-10
2.55958e-10
2.00426e-10
1.42358e-10
1.0698e-10
9.19511e-11
8.97054e-11
5.61896e-11
5.26495e-11
4.92628e-11
4.48045e-11
1.19718e-11
1.16155e-11
1.11321e-11
1.04668e-11
1.21214e-12
1.3861e-12
1.45944e-12
1.47677e-12
-2.57114e-13
-1.14335e-13
-2.36502e-14
4.08663e-14
-1.98565e-13
-1.20046e-13
-6.93328e-14
-3.75629e-14
-6.65816e-14
-4.10701e-14
-2.46303e-14
-1.43107e-14
-1.34501e-14
-8.20175e-15
-4.8776e-15
-2.8119e-15
-1.72155e-15
-1.01338e-15
-5.72638e-16
-2.96597e-16
-1.34839e-16
-6.81246e-17
-2.33113e-17
1.16816e-17
-1.80985e-18
8.52735e-18
3.30635e-17
7.54337e-17
8.68737e-18
1.9553e-17
4.52082e-17
9.30743e-17
9.71048e-18
2.10532e-17
4.74899e-17
9.69743e-17
7.17574e-18
1.5113e-17
3.35221e-17
6.4768e-17
3.58982e-18
7.36277e-18
1.62575e-17
2.90652e-17
1.27513e-18
2.62724e-18
5.76778e-18
1.11098e-17
3.91775e-19
8.54582e-19
2.38216e-18
6.98722e-18
1.19297e-19
3.08742e-19
1.71995e-18
7.30922e-18
3.00578e-20
1.00713e-19
1.55366e-18
6.07382e-18
4.65473e-21
2.34912e-20
4.22621e-19
1.58148e-18
4.80563e-22
4.20268e-21
1.07192e-19
3.13755e-19
3.2741e-23
5.25494e-22
1.52939e-20
2.97244e-20
5.2105e-25
1.03195e-23
1.8247e-22
2.38936e-22
1.71181e-28
1.04741e-26
2.12612e-25
1.94595e-25
1.37671e-31
1.81539e-32
1.99514e-34
3.09735e-38
7.52337e-41
7.17559e-43
-1.54157e-43
-4.47533e-40
0.9869
0.880225
0.242474
0.242363
0.678019
0.683845
0.683272
0.683492
0.164184
0.118089
0.344893
0.604236
0.607034
0.605423
0.576733
0.179905
0.0565075
0.0541737
0.0546706
0.949336
0.398066
0.242363
0.243094
0.561439
0.493337
0.682892
0.683292
0.509574
0.501187
0.557512
0.579933
0.603231
0.344858
0.0899919
0.104583
0.0888302
0.0648241
0.0546706
0.502868
0.25031
0.248576
0.523313
0.278783
0.309647
0.681021
0.680775
0.662692
0.62695
0.352276
0.127575
0.458247
0.10276
0.0719796
0.0733382
0.0912085
0.0908601
0.0550788
0.658339
0.58718
0.587506
0.444676
0.274752
0.456874
0.609285
0.438649
0.266105
0.118927
0.00573806
0.00574165
0.0773341
0.0734411
0.0719796
0.0900924
0.0911109
0.0912197
0.0887281
0.93794
0.53531
0.310751
0.3089
0.459446
0.449735
0.168817
0.012986
0.00614622
0.0057474
0.00575627
0.00574286
0.0116593
0.0626069
0.0888284
0.0910987
0.0900338
0.0711878
0.0504698
0.373943
0.260768
0.343341
0.427059
0.387494
0.169523
0.0193525
0.0149339
0.0191781
0.00679512
0.00574907
0.00575621
0.0173348
0.0875017
0.0883489
0.0809512
0.00966289
0.00672499
0.0058704
0.0195902
0.105261
0.310705
0.290823
0.0442408
0.0247708
0.0237076
0.0320227
0.0391904
0.0288989
0.00584388
0.00587027
0.0463473
0.0877174
0.0874944
0.016686
0.000936092
0.000592957
0.00196726
0.0165598
0.0828333
0.0599165
0.0297486
0.0300456
0.0250158
0.0383392
0.0387743
0.0391904
0.0182459
0.00602262
0.00946248
0.0596477
0.0874944
0.0401425
0.00100108
0.000557765
1.40235e-05
3.5372e-06
0.0360602
0.0559974
0.0351724
0.0369095
0.030941
0.0337122
0.0346701
0.0263784
0.00826528
0.00683953
0.015662
0.0646054
0.0641674
0.0266544
0.000700629
0.00185908
0.00180503
3.49063e-06
3.54612e-06
0.0458784
0.0327953
0.0110436
0.0086565
0.0112144
0.0168885
3.18091e-05
0.000193554
0.00039936
0.0102929
0.0649051
0.0649761
0.0649051
0.04012
0.000382367
0.000252379
0.00107085
3.81012e-06
3.52323e-06
0.0280958
0.00395799
0.000167993
3.18069e-07
2.22757e-06
8.74489e-06
1.25601e-05
3.1819e-05
0.000182244
0.00799676
0.0507626
0.0649804
0.0642042
0.0618246
0.00141942
2.38558e-05
5.61961e-06
4.451e-06
5.38074e-06
-4.7304e-07
-6.30308e-07
-4.63252e-10
3.91723e-08
3.12099e-07
4.48265e-06
7.64666e-05
0.000147288
0.0002668
0.00036401
9.68824e-05
0.0380741
0.0635617
0.0559941
0.00607006
2.3348e-05
1.72372e-05
5.91612e-06
1.65771e-05
1.75747e-10
-1.19833e-11
5.62521e-09
4.32694e-08
2.77938e-07
1.11371e-05
0.000483458
0.00072585
0.000730179
0.000478202
1.72594e-06
5.19637e-06
0.00369044
0.0112577
0.00286851
2.33372e-05
2.33455e-05
2.18202e-05
7.02139e-05
1.83019e-09
1.52826e-09
-2.18519e-10
-1.85697e-08
-1.53245e-07
-3.85958e-08
9.55524e-05
0.000347326
0.000248281
1.31315e-06
9.48941e-07
1.4116e-06
5.0043e-06
1.71912e-05
2.42925e-05
2.2476e-05
2.84656e-05
0.000512924
0.0018032
1.12994e-09
6.55283e-10
3.84407e-10
1.78169e-10
2.36393e-10
5.69012e-10
4.34614e-09
2.18876e-08
7.45593e-08
1.23827e-06
6.96798e-07
7.79748e-07
1.0816e-05
2.0903e-05
6.86847e-06
2.3424e-05
4.9541e-05
0.00184471
0.00391192
4.18557e-10
2.85658e-10
4.11654e-11
4.43171e-11
7.11889e-11
9.31624e-10
2.08628e-07
6.76921e-07
3.84137e-07
2.95273e-07
7.04114e-07
8.63744e-07
4.88225e-07
8.23729e-07
9.91716e-07
5.04145e-06
3.754e-05
0.00227535
0.00391123
6.61213e-11
4.42559e-11
2.78928e-11
2.65155e-11
2.54773e-11
2.26382e-10
3.96936e-07
2.71111e-06
2.63318e-06
7.82569e-08
8.35109e-08
2.63879e-07
2.85998e-07
9.32891e-08
6.14394e-08
1.75636e-08
-2.11312e-10
0.000963227
0.00391487
3.79811e-11
2.14614e-11
2.0605e-11
2.3666e-11
2.48586e-11
1.37245e-11
1.6437e-11
7.10924e-07
5.86029e-06
5.18165e-06
4.23545e-08
3.91128e-08
3.92056e-08
5.02259e-08
3.02099e-08
1.26779e-10
-8.19167e-08
0.000253876
0.00389706
8.99675e-12
7.51172e-12
6.26666e-12
8.03496e-12
1.7785e-11
1.1435e-11
1.76088e-11
1.66104e-11
1.01665e-06
9.95758e-06
1.994e-06
3.92055e-08
3.91152e-08
5.45178e-08
4.4242e-08
2.82148e-09
-1.17685e-08
6.49516e-05
0.00384267
1.40309e-12
1.2023e-12
1.12219e-12
1.28425e-12
2.36508e-12
1.05209e-11
3.72795e-11
1.58009e-11
1.54193e-11
4.48796e-06
4.45208e-06
2.88359e-06
5.90084e-07
5.59238e-08
5.52558e-08
1.11696e-08
-7.87913e-27
3.71171e-07
0.00383764
9.36254e-14
1.10602e-13
1.32681e-13
2.11061e-13
5.87901e-13
2.69731e-12
1.42334e-11
1.44989e-11
1.30674e-11
2.81662e-11
2.39886e-06
3.05825e-06
3.05825e-06
2.38538e-06
2.11261e-07
2.83265e-09
9.42663e-10
1.62128e-09
0.00204031
-9.31328e-15
7.57249e-16
1.1763e-14
4.75553e-14
2.81514e-13
1.87912e-12
7.68137e-12
1.36627e-11
1.29223e-11
1.3167e-11
1.45578e-09
7.18224e-07
2.84758e-06
2.50131e-06
4.08338e-07
3.66418e-09
1.5864e-09
1.42636e-09
0.0002784
-4.80665e-15
-8.29972e-16
5.22029e-15
3.90258e-14
2.79586e-13
2.78548e-12
1.09732e-11
1.28107e-11
1.27242e-11
4.49662e-10
2.50842e-08
3.11156e-08
2.19617e-07
2.06458e-07
9.8698e-08
7.03514e-09
1.42693e-09
1.45715e-09
1.49045e-09
-8.54025e-16
6.91696e-16
1.29166e-14
1.07477e-13
6.82027e-13
4.42877e-12
2.45813e-11
2.52803e-11
1.28875e-11
1.35345e-11
4.8388e-08
7.06462e-08
5.10607e-08
7.9181e-09
1.4701e-09
1.4269e-09
1.4269e-09
1.42693e-09
1.51689e-09
0
2.22954e-15
2.74366e-14
2.35993e-13
1.44093e-12
7.02787e-12
3.64244e-11
7.13938e-11
3.13342e-11
1.70911e-11
8.2613e-09
7.14447e-08
6.2272e-08
1.30244e-08
1.53956e-09
1.43023e-09
1.42669e-09
1.45715e-09
1.76346e-09
2.29523e-16
4.23418e-15
5.05205e-14
4.1e-13
2.33884e-12
1.01316e-11
3.74436e-11
1.21943e-10
1.49762e-10
1.26365e-10
1.41171e-10
8.18746e-09
1.51965e-08
1.0559e-08
3.99508e-09
1.32556e-09
1.44488e-09
1.65752e-09
4.78654e-09
3.45469e-16
7.262e-15
7.62627e-14
5.73603e-13
3.19263e-12
1.35753e-11
4.76974e-11
1.31091e-10
2.40553e-10
2.61646e-10
2.56747e-10
2.64227e-10
2.87928e-10
1.25538e-09
1.34603e-09
7.94562e-10
1.21632e-08
1.19731e-08
1.28041e-08
4.12265e-16
9.57088e-15
8.93064e-14
6.56974e-13
4.4666e-12
2.08211e-11
6.30082e-11
1.70057e-10
2.81039e-10
2.78707e-10
2.75439e-10
2.76659e-10
2.93279e-10
5.43078e-10
5.47403e-10
5.59047e-10
3.29297e-08
3.97663e-08
1.85618e-08
3.88717e-16
9.20733e-15
6.43917e-14
6.27294e-13
6.11223e-12
3.29549e-11
9.12416e-11
1.7007e-10
3.08214e-10
8.46686e-10
1.02146e-09
8.51185e-10
5.51026e-10
5.64429e-10
5.58674e-10
5.67347e-10
3.90531e-08
4.30622e-08
1.96678e-08
3.18516e-16
7.1975e-15
4.54546e-14
5.60745e-13
5.73677e-12
4.06803e-11
9.00571e-11
1.35604e-10
8.35385e-10
2.86982e-09
3.94252e-09
2.95554e-09
1.18771e-09
5.72223e-10
5.67347e-10
4.34172e-09
4.25958e-08
4.30629e-08
1.98312e-08
5.20337e-16
1.16949e-14
5.96576e-14
8.32512e-13
8.14854e-12
6.95921e-11
2.17683e-10
3.14839e-10
6.97737e-10
2.2477e-09
4.41423e-09
4.44654e-09
3.29483e-09
1.48534e-09
5.70939e-10
3.6023e-09
3.98676e-08
4.271e-08
2.00916e-08
3.0009e-15
6.84114e-14
3.07095e-13
2.21237e-12
2.98854e-11
3.93965e-11
7.15931e-10
6.85763e-10
6.49995e-10
6.49995e-10
1.38821e-09
7.13544e-09
1.06164e-08
5.17792e-09
8.85371e-10
1.53101e-08
2.99002e-08
2.91059e-08
2.21671e-08
7.229e-15
1.69039e-13
9.78023e-13
2.05964e-12
1.44738e-11
1.14133e-11
1.71477e-10
7.74518e-09
6.59372e-10
6.7091e-10
1.76627e-09
1.06147e-08
1.1323e-08
9.22163e-09
2.56654e-09
7.67097e-09
5.43835e-09
5.18567e-09
2.96299e-08
9.44161e-15
2.25996e-13
1.51216e-12
4.14535e-12
1.01288e-11
1.14754e-11
1.14118e-11
1.14283e-11
7.6708e-08
1.12096e-07
4.14247e-08
5.12485e-09
6.00907e-09
4.72101e-09
1.77792e-09
1.30474e-09
1.32087e-09
1.44848e-09
1.13245e-07
6.46886e-15
2.28606e-13
1.68982e-12
5.27809e-12
1.35731e-11
1.14169e-11
1.14282e-11
1.44689e-08
1.25255e-07
1.25255e-07
6.8222e-08
1.9315e-09
1.38198e-09
1.31394e-09
1.30487e-09
1.30493e-09
1.30294e-09
1.09593e-05
2.52017e-05
2.50595e-15
1.10621e-13
1.20161e-12
5.06894e-12
1.69974e-11
2.07331e-11
1.1479e-11
1.19382e-11
1.11284e-07
1.25255e-07
1.83837e-08
1.49533e-09
1.3897e-09
1.37394e-09
1.32697e-07
1.30493e-09
9.74329e-07
7.36386e-05
6.20654e-05
5.22475e-16
3.56964e-14
5.74057e-13
3.77295e-12
1.50246e-11
8.04238e-11
8.8245e-11
6.51141e-11
5.97416e-09
5.23677e-08
1.78486e-08
3.60184e-07
1.02579e-05
1.42061e-05
5.8377e-06
6.12955e-09
3.86708e-05
8.29669e-05
5.35993e-05
7.27975e-17
7.12155e-15
1.68261e-13
1.88666e-12
1.07162e-11
1.40675e-10
6.25405e-10
4.36034e-10
4.36652e-10
4.95107e-10
3.07404e-06
1.489e-05
1.57117e-05
1.56254e-05
1.89524e-06
1.35925e-05
8.29599e-05
8.29542e-05
4.04112e-05
7.97364e-19
2.44208e-16
1.53286e-14
4.3713e-13
1.91751e-12
1.78847e-10
1.40008e-09
1.69726e-09
6.14635e-10
5.98613e-10
8.62148e-07
1.57035e-05
1.5687e-05
1.45151e-05
1.19418e-06
3.69565e-08
4.63548e-05
5.22011e-05
3.21619e-05
4.88341e-23
9.45679e-19
2.7005e-16
3.39823e-14
6.6068e-13
1.35848e-11
1.26045e-09
2.31871e-09
1.63965e-09
6.28309e-10
6.43039e-10
3.86092e-06
9.74184e-06
4.76179e-06
6.11401e-07
1.35999e-08
3.28232e-07
2.9942e-08
2.5952e-05
6.42034e-29
4.23277e-22
3.1771e-18
1.22564e-15
9.44859e-14
2.22249e-12
1.19689e-10
1.59429e-09
1.86647e-09
7.7e-10
6.75797e-10
1.1254e-09
4.87984e-08
4.5028e-09
5.88295e-08
1.259e-08
6.13011e-10
2.28155e-09
2.62836e-05
1.12857e-37
4.11945e-30
1.45784e-22
2.45621e-18
1.08826e-15
8.31078e-14
1.22576e-12
1.28548e-10
7.6344e-10
6.76874e-10
6.76874e-10
6.85009e-10
3.29045e-09
2.06778e-09
6.6152e-10
6.13011e-10
6.13011e-10
6.13011e-10
2.38444e-05
)
;

boundaryField
{
    leftWall
    {
        type            zeroGradient;
    }
    rightWall
    {
        type            zeroGradient;
    }
    lowerWall
    {
        type            zeroGradient;
    }
    atmosphere
    {
        type            inletOutlet;
        inletValue      uniform 0;
        value           nonuniform List<scalar> 
46
(
-1.00057e-34
-5.198e-34
-8.08749e-33
-4.55053e-32
-7.76305e-32
-7.12133e-32
-4.22613e-32
-1.69544e-32
-4.45008e-33
-6.7975e-34
-4.76059e-35
-1.0433e-36
0
0
0
0
0
0
0
0
0
0
0
0
0
0
0
0
0
0
0
0
0
0
0
0
6.76874e-10
6.76874e-10
6.85009e-10
3.29045e-09
2.06778e-09
6.6152e-10
6.13011e-10
6.13011e-10
6.13011e-10
2.38444e-05
)
;
    }
    defaultFaces
    {
        type            empty;
    }
}


// ************************************************************************* //
