/*--------------------------------*- C++ -*----------------------------------*\
| =========                 |                                                 |
| \\      /  F ield         | OpenFOAM: The Open Source CFD Toolbox           |
|  \\    /   O peration     | Version:  v2012                                 |
|   \\  /    A nd           | Website:  www.openfoam.com                      |
|    \\/     M anipulation  |                                                 |
\*---------------------------------------------------------------------------*/
FoamFile
{
    version     2.0;
    format      ascii;
    class       surfaceScalarField;
    location    "1";
    object      alphaPhi0.water;
}
// * * * * * * * * * * * * * * * * * * * * * * * * * * * * * * * * * * * * * //

dimensions      [0 3 -1 0 0 0 0];
oriented        oriented;


internalField   nonuniform List<scalar> 
4432
(
-8.19369e-07
8.19369e-07
-3.22933e-06
2.40996e-06
-5.58489e-06
2.35555e-06
-7.81292e-06
2.22803e-06
-1.00141e-05
2.20115e-06
-1.21868e-05
2.17275e-06
-1.42648e-05
2.07796e-06
-1.61558e-05
1.89104e-06
-1.77635e-05
1.60772e-06
-1.89947e-05
1.23114e-06
-1.97553e-05
7.60648e-07
-1.99493e-05
1.94057e-07
-1.95193e-05
-4.29979e-07
-1.82369e-05
-9.9586e-07
-1.64785e-05
-1.48304e-06
-1.42995e-05
-2.24374e-06
-1.10802e-05
-3.28458e-06
-6.72005e-06
-4.42599e-06
-1.52806e-06
-5.25968e-06
3.48048e-06
-5.08648e-06
6.30972e-06
-2.9071e-06
4.99669e-06
1.46263e-06
5.02733e-06
-2.45489e-06
3.27425e-06
-5.19167e-06
5.14673e-06
-7.74765e-06
4.91153e-06
-1.01975e-05
4.6779e-06
-1.25956e-05
4.59918e-06
-1.48757e-05
4.45284e-06
-1.69404e-05
4.14273e-06
-1.86859e-05
3.63651e-06
-2.00098e-05
2.93158e-06
-2.08259e-05
2.04727e-06
-2.11007e-05
1.03547e-06
-2.08914e-05
-1.50948e-08
-2.02989e-05
-1.02248e-06
-1.93201e-05
-1.97577e-06
-1.77637e-05
-3.02277e-06
-1.54809e-05
-4.47111e-06
-1.24073e-05
-6.40557e-06
-8.43239e-06
-8.50981e-06
-3.77039e-06
-1.00638e-05
9.13695e-07
-9.87734e-06
4.24226e-06
-6.27243e-06
4.43648e-06
1.27941e-06
9.49434e-06
-3.10911e-06
6.38336e-06
-5.69214e-06
7.72976e-06
-8.1616e-06
7.38099e-06
-1.05973e-05
7.1136e-06
-1.29717e-05
6.97356e-06
-1.52125e-05
6.69361e-06
-1.72327e-05
6.16302e-06
-1.894e-05
5.34381e-06
-2.02394e-05
4.23088e-06
-2.10498e-05
2.85774e-06
-2.134e-05
1.32569e-06
-2.11508e-05
-2.0437e-07
-2.05659e-05
-1.60735e-06
-1.96149e-05
-2.92672e-06
-1.822e-05
-4.41772e-06
-1.62497e-05
-6.44141e-06
-1.35589e-05
-9.09638e-06
-1.00659e-05
-1.20028e-05
-5.84262e-06
-1.42871e-05
-1.2966e-06
-1.44234e-05
2.35784e-06
-9.92685e-06
3.44565e-06
1.91618e-07
1.29478e-05
-3.28986e-06
9.67321e-06
-5.80675e-06
1.02467e-05
-8.25259e-06
9.82683e-06
-1.06906e-05
9.55162e-06
-1.30642e-05
9.34721e-06
-1.53057e-05
8.93508e-06
-1.73363e-05
8.19362e-06
-1.90664e-05
7.0739e-06
-2.0397e-05
5.56143e-06
-2.1238e-05
3.69884e-06
-2.1548e-05
1.63565e-06
-2.13655e-05
-3.86818e-07
-2.0789e-05
-2.18385e-06
-1.98979e-05
-3.8179e-06
-1.86805e-05
-5.63513e-06
-1.70469e-05
-8.07499e-06
-1.48575e-05
-1.12858e-05
-1.19502e-05
-1.49101e-05
-8.17721e-06
-1.80601e-05
-3.63967e-06
-1.89609e-05
5.17957e-07
-1.40845e-05
2.41132e-06
-1.70207e-06
1.5358e-05
-3.27766e-06
1.29509e-05
-5.78895e-06
1.27579e-05
-8.24545e-06
1.22833e-05
-1.06976e-05
1.20038e-05
-1.30881e-05
1.17377e-05
-1.53557e-05
1.12027e-05
-1.74265e-05
1.02644e-05
-1.92086e-05
8.85597e-06
-2.05925e-05
6.94531e-06
-2.14721e-05
4.57844e-06
-2.17927e-05
1.95633e-06
-2.15988e-05
-5.80801e-07
-2.10205e-05
-2.7621e-06
-2.01973e-05
-4.64108e-06
-1.91903e-05
-6.64215e-06
-1.79655e-05
-9.29976e-06
-1.63946e-05
-1.28568e-05
-1.42102e-05
-1.70945e-05
-1.09685e-05
-2.13019e-05
-6.36944e-06
-2.356e-05
-1.57017e-06
-1.88837e-05
1.22527e-06
-4.49796e-06
1.65826e-05
-3.1924e-06
1.61433e-05
-5.70881e-06
1.52744e-05
-8.17893e-06
1.47535e-05
-1.06469e-05
1.44717e-05
-1.3064e-05
1.41548e-05
-1.53762e-05
1.35149e-05
-1.75116e-05
1.23999e-05
-1.9372e-05
1.07164e-05
-2.08313e-05
8.40464e-06
-2.17596e-05
5.50671e-06
-2.20842e-05
2.28097e-06
-2.1858e-05
-8.07042e-07
-2.12529e-05
-3.36719e-06
-2.04783e-05
-5.41567e-06
-1.96787e-05
-7.44185e-06
-1.89033e-05
-1.00753e-05
-1.80681e-05
-1.36925e-05
-1.67965e-05
-1.83669e-05
-1.42707e-05
-2.38285e-05
-9.64217e-06
-2.81891e-05
-4.10678e-06
-2.44194e-05
-2.41484e-07
-8.36353e-06
1.63404e-05
-3.07809e-06
1.92214e-05
-5.58124e-06
1.77775e-05
-8.05091e-06
1.72231e-05
-1.05287e-05
1.69495e-05
-1.29775e-05
1.66037e-05
-1.53499e-05
1.58873e-05
-1.75739e-05
1.46239e-05
-1.95406e-05
1.26831e-05
-2.11008e-05
9.96481e-06
-2.20916e-05
6.49747e-06
-2.24154e-05
2.60478e-06
-2.21329e-05
-1.08957e-06
-2.14622e-05
-4.0378e-06
-2.06892e-05
-6.18877e-06
-2.00499e-05
-8.08166e-06
-1.97096e-05
-1.04168e-05
-1.96983e-05
-1.37078e-05
-1.95604e-05
-1.85164e-05
-1.80332e-05
-2.53599e-05
-1.34953e-05
-3.27319e-05
-7.2142e-06
-3.07012e-05
-2.31489e-06
-1.32627e-05
1.40257e-05
-2.93544e-06
2.21568e-05
-5.39739e-06
2.02395e-05
-7.84367e-06
1.96694e-05
-1.03198e-05
1.94257e-05
-1.28019e-05
1.90857e-05
-1.52487e-05
1.83341e-05
-1.75858e-05
1.6961e-05
-1.96897e-05
1.4787e-05
-2.13818e-05
1.16569e-05
-2.24571e-05
7.57278e-06
-2.27844e-05
2.93208e-06
-2.24286e-05
-1.44536e-06
-2.16552e-05
-4.81117e-06
-2.08228e-05
-7.02143e-06
-2.02381e-05
-8.66892e-06
-2.01229e-05
-1.05402e-05
-2.07771e-05
-1.308e-05
-2.18043e-05
-1.75329e-05
-2.17896e-05
-2.54064e-05
-1.77446e-05
-3.68144e-05
-1.079e-05
-3.74966e-05
-4.59219e-06
-1.94503e-05
9.43376e-06
2.53078e-06
-3.27975e-06
-6.88264e-06
1.01028e-05
-2.39355e-05
1.7078e-05
-3.88206e-05
1.49136e-05
-4.3995e-05
6.44905e-06
-4.24781e-05
-1.52649e-06
-3.86289e-05
-3.99263e-06
-3.58886e-05
-2.8824e-06
-3.39056e-05
-2.34367e-06
-3.02078e-05
-4.59132e-06
-1.95401e-05
-1.05628e-05
-5.55668e-06
-1.434e-05
5.1105e-06
-1.11275e-05
1.09666e-05
-6.00955e-06
1.19015e-05
-9.43298e-07
1.02891e-05
1.61019e-06
8.38373e-06
2.52802e-06
5.59631e-06
2.88991e-06
5.42452e-06
-5.63013e-06
1.90909e-06
-2.23063e-05
2.7086e-05
-3.76248e-05
3.24251e-05
-4.52446e-05
2.25589e-05
-4.51265e-05
6.36192e-06
-4.07198e-05
-5.8744e-06
-3.58833e-05
-8.62979e-06
-3.27019e-05
-5.75123e-06
-3.00199e-05
-4.70351e-06
-2.51888e-05
-9.11296e-06
-1.57453e-05
-1.93523e-05
-3.92076e-06
-2.56164e-05
5.63283e-06
-2.01736e-05
1.04796e-05
-1.12437e-05
9.78618e-06
-8.52828e-07
6.7121e-06
4.67843e-06
3.25057e-06
5.95588e-06
2.16796e-06
3.88888e-06
7.54665e-06
-1.3441e-05
1.52904e-05
-2.80024e-05
4.17074e-05
-3.81053e-05
4.25567e-05
-4.08819e-05
2.53635e-05
-3.43798e-05
3.75608e-06
-2.94988e-05
-4.43503e-06
-2.67194e-05
-7.30103e-06
-2.43934e-05
-5.30323e-06
-2.18251e-05
-4.11315e-06
-1.79393e-05
-7.27851e-06
-1.04091e-05
-1.96501e-05
-1.53696e-07
-3.25225e-05
8.39048e-06
-2.84476e-05
1.27078e-05
-1.54917e-05
1.12649e-05
6.59412e-07
5.44898e-06
1.04758e-05
8.52078e-08
1.14474e-05
-2.10141e-06
6.17951e-06
5.41058e-06
-1.6378e-05
3.17591e-05
-2.78131e-05
5.32137e-05
-3.34461e-05
4.82487e-05
-1.76451e-05
1.57744e-05
-8.70755e-06
1.10581e-06
-5.67285e-06
-6.89807e-06
-3.9362e-06
-7.69801e-06
-3.90418e-06
-1.6717e-06
-3.50139e-06
-5.55214e-07
-3.26635e-06
-2.03637e-06
-1.71119e-06
-1.29697e-05
4.34521e-06
-2.46418e-05
1.23083e-05
-2.35658e-05
1.76234e-05
-1.7675e-05
1.54067e-05
2.94538e-06
8.26251e-06
1.77167e-05
1.39352e-08
1.97958e-05
-4.51926e-06
8.19367e-06
5.1109e-07
-1.65255e-05
4.84072e-05
-2.49922e-05
6.17694e-05
-2.11028e-05
4.66367e-05
-6.93189e-06
1.11525e-05
-6.96766e-06
-8.19414e-07
-2.6729e-06
-1.54527e-05
-1.57964e-07
-1.39375e-05
5.67847e-07
-2.427e-06
-1.35369e-07
1.10097e-07
-7.37418e-07
-1.47223e-06
1.70576e-06
-1.70052e-05
8.72726e-06
-3.29781e-05
1.38773e-05
-1.93766e-05
2.29265e-05
-1.57915e-05
2.19293e-05
4.74848e-06
1.59986e-05
2.35614e-05
5.67655e-06
1.61671e-05
-2.23549e-07
1.15569e-06
1.00843e-09
-1.55961e-05
6.41187e-05
-2.14325e-05
6.77258e-05
-8.70488e-06
3.68406e-05
-9.06091e-06
8.30689e-06
-1.06412e-05
-2.97367e-06
-6.89681e-06
-2.89157e-05
-8.48235e-08
-3.23521e-05
1.87013e-06
-6.76292e-06
1.57687e-06
3.75224e-07
1.15819e-06
-1.14539e-06
8.01386e-06
-2.58213e-05
1.3726e-05
-3.84204e-05
1.92286e-05
-3.23757e-05
2.12189e-05
-1.76379e-05
2.59692e-05
3.1945e-06
2.18753e-05
1.47679e-05
5.31842e-06
4.9058e-06
4.45223e-07
8.52523e-07
3.54956e-07
-1.46629e-05
7.88943e-05
-1.75791e-05
7.06351e-05
-7.02335e-06
2.59415e-05
-1.12284e-05
1.06624e-05
-9.7463e-06
-1.36427e-05
-5.68497e-06
-3.33459e-05
-7.01874e-07
-3.73261e-05
2.78998e-06
-2.82329e-05
1.95675e-06
-3.37694e-07
2.24836e-06
-1.46805e-06
1.09692e-05
-3.1063e-05
1.62597e-05
-4.31178e-05
2.1712e-05
-3.72158e-05
2.19063e-05
-1.9213e-05
1.11616e-05
2.33013e-06
9.54824e-06
1.25435e-06
2.40264e-06
2.50451e-06
9.13433e-07
2.34439e-06
1.27946e-06
-1.45128e-05
9.35066e-05
-1.10199e-05
6.73577e-05
-7.58102e-06
2.14684e-05
-1.00029e-05
9.03516e-06
-7.1238e-06
-1.67462e-05
-4.47565e-06
-3.59886e-05
-1.5313e-06
-4.03627e-05
3.19023e-06
-3.30494e-05
2.09014e-06
-1.44066e-06
3.1105e-06
-2.63104e-06
1.26577e-05
-2.86305e-05
1.73183e-05
-4.74054e-05
2.24758e-05
-4.1783e-05
2.66899e-05
-2.28009e-05
1.85931e-05
-1.68624e-08
3.70899e-06
5.03009e-06
2.26569e-06
3.74285e-06
1.19935e-06
3.4218e-06
2.38874e-06
-5.55426e-06
2.77111e-05
-1.0623e-05
2.53082e-05
-1.56732e-05
2.47196e-05
-2.0891e-05
2.46435e-05
-2.62912e-05
2.44859e-05
-3.18062e-05
2.3849e-05
-3.7263e-05
2.24178e-05
-4.23453e-05
1.98694e-05
-4.65648e-05
1.58763e-05
-4.93157e-05
1.03237e-05
-5.01594e-05
3.77579e-06
-4.92692e-05
-2.33493e-06
-4.73181e-05
-6.75987e-06
-4.51126e-05
-9.22612e-06
-4.30822e-05
-1.00459e-05
-3.98615e-05
-7.16829e-06
-3.79516e-05
-4.1994e-06
-4.07548e-05
-3.60723e-06
-4.91606e-05
-8.30213e-06
-5.09153e-05
-3.97366e-05
-3.63936e-05
-5.32828e-05
-2.10438e-05
-3.56791e-05
-9.01479e-06
-2.00044e-06
-4.20156e-06
3.19127e-05
-8.6269e-06
2.97335e-05
-1.3293e-05
2.93857e-05
-1.84101e-05
2.97606e-05
-2.40774e-05
3.01533e-05
-3.02772e-05
3.00488e-05
-3.68425e-05
2.8983e-05
-4.34203e-05
2.64473e-05
-4.93886e-05
2.18447e-05
-5.38134e-05
1.47485e-05
-5.584e-05
5.80316e-06
-5.58004e-05
-2.36864e-06
-5.39921e-05
-8.36621e-06
-4.72688e-05
-7.175e-06
-2.84412e-05
-3.03434e-06
-1.18215e-05
-1.22362e-06
-5.53401e-06
-4.53659e-07
-4.33186e-06
-1.07298e-08
-2.0525e-05
-6.61818e-08
-7.0283e-05
-3.53102e-05
-6.51735e-05
-6.10054e-05
-5.87772e-05
-4.30065e-05
-9.75962e-06
-5.43648e-05
-2.03586e-06
3.39485e-05
-5.39069e-06
3.30884e-05
-9.30932e-06
3.33043e-05
-1.4146e-05
3.45973e-05
-2.0086e-05
3.60933e-05
-2.71994e-05
3.71622e-05
-3.53597e-05
3.71434e-05
-4.42861e-05
3.53737e-05
-5.33246e-05
3.08834e-05
-6.09247e-05
2.23511e-05
-6.52592e-05
1.0158e-05
-6.74312e-05
8.99275e-07
-4.29507e-05
-2.20376e-06
-8.25763e-06
-1.67884e-06
-2.00256e-06
-9.41246e-07
-1.44395e-06
-1.03443e-06
-1.14557e-06
-2.01606e-07
-8.05443e-07
4.04186e-07
-4.62654e-06
8.60699e-07
-7.18993e-05
-1.48502e-05
-9.19214e-05
-5.88281e-05
-9.46228e-05
-4.10795e-05
-6.62095e-06
-9.74602e-05
9.00204e-07
3.30483e-05
-6.61363e-07
3.46499e-05
-3.40154e-06
3.60445e-05
-7.71014e-06
3.89058e-05
-1.3249e-05
4.07948e-05
-2.07554e-05
3.29213e-05
-2.84001e-05
2.78834e-05
-3.66897e-05
2.21993e-05
-4.57558e-05
1.65842e-05
-5.44462e-05
1.0552e-05
-5.45056e-05
4.14913e-06
-2.86353e-05
3.07692e-07
-8.18333e-06
4.31725e-07
-5.90189e-06
-2.39566e-09
-4.3609e-06
-1.66178e-06
-2.96371e-06
-1.85242e-06
-1.99311e-06
-8.22968e-07
-1.08068e-06
1.49943e-07
-7.06222e-07
6.05706e-07
-2.75124e-05
-1.65044e-06
-9.34313e-05
-2.1746e-05
-0.000100868
-3.36243e-05
-1.13095e-05
-9.55866e-05
3.69872e-06
1.63059e-05
4.304e-06
1.83525e-05
2.66028e-06
1.66742e-05
-2.50286e-07
1.26783e-05
-3.73859e-06
6.49996e-06
-6.16246e-06
1.33667e-06
-7.34448e-06
2.96348e-09
-8.19221e-06
-1.594e-07
-8.63514e-06
-1.77602e-07
-8.28817e-06
7.01309e-08
-1.01561e-05
-4.4176e-07
-1.4374e-05
1.0854e-07
-1.59928e-05
3.15361e-07
-1.60425e-05
-9.71791e-08
-1.45866e-05
-2.45093e-06
-1.16799e-05
-3.87207e-06
-2.95132e-06
-2.69892e-06
-1.70869e-06
-7.67337e-07
-9.73051e-07
-1.9884e-08
-2.6371e-06
-1.27759e-07
-3.58093e-05
-1.5356e-06
-8.37552e-05
-1.06652e-05
-1.4609e-05
-8.02755e-05
9.77899e-07
-7.44441e-09
1.59368e-06
2.68189e-08
9.41633e-07
-1.65208e-08
1.82035e-07
-1.62021e-09
-2.97355e-07
3.44197e-08
-6.67464e-07
8.26915e-08
-1.23453e-06
8.21066e-08
-1.97508e-06
9.66892e-08
-2.68413e-06
9.43053e-08
-3.14594e-06
8.96427e-08
-5.57026e-06
-5.83477e-08
-1.62134e-05
1.3997e-06
-1.79871e-05
1.77231e-06
-1.72484e-05
-2.96443e-07
-1.64955e-05
-2.81876e-06
-1.51021e-05
-5.18504e-06
-8.95779e-06
-4.87727e-06
-2.04775e-06
-2.76771e-06
-1.40977e-06
-7.91587e-07
-1.34775e-06
-3.09747e-07
-2.66115e-06
-3.52721e-07
-1.28847e-05
-5.95206e-07
-4.08013e-07
-4.48603e-05
-2.21002e-08
-6.18318e-09
-1.41563e-08
-1.29936e-08
-9.17448e-08
-8.57767e-09
-1.94805e-07
5.80481e-09
-2.83631e-07
1.37641e-08
-3.56887e-07
2.91402e-08
-4.71068e-07
4.44389e-08
-5.95822e-07
6.16501e-08
-7.23805e-07
6.10131e-08
-7.89995e-07
2.08161e-08
-1.28857e-06
2.83791e-08
-3.266e-06
2.47034e-09
-5.46652e-06
9.31933e-08
-9.95428e-06
-1.01153e-07
-1.34325e-05
-1.00925e-06
-1.62032e-05
-2.45924e-06
-1.58626e-05
-4.73692e-06
-7.10664e-06
-4.91793e-06
-2.61582e-06
-3.46863e-06
-1.20937e-06
-1.84774e-06
-9.37164e-07
-7.85899e-07
-7.95822e-07
-8.96051e-07
-5.63796e-07
-8.01356e-07
-6.66388e-09
-9.58418e-10
-2.30031e-08
-2.27405e-09
-4.27768e-08
-1.84868e-09
-5.82455e-08
1.41151e-09
-7.46182e-08
4.89828e-09
-9.59474e-08
9.09548e-09
-1.22726e-07
1.58757e-08
-1.49355e-07
2.42815e-08
-1.80919e-07
2.75309e-08
-2.34338e-07
2.36674e-08
-2.58691e-07
1.34596e-08
-2.49861e-07
7.812e-09
-1.46415e-07
1.50099e-09
-2.14242e-07
-2.01465e-09
-1.16142e-06
-5.42392e-08
-4.07736e-06
-2.08472e-07
-8.33367e-06
-1.42076e-06
-9.29512e-06
-3.06278e-06
-7.61089e-06
-3.83117e-06
-5.20329e-06
-3.5275e-06
-2.59373e-06
-3.1549e-06
-1.31743e-06
-2.18694e-06
-8.90256e-07
-1.152e-06
-1.07533e-09
-1.0017e-10
-4.07385e-09
-2.60027e-10
-8.51771e-09
-1.57971e-10
-1.25481e-08
4.8343e-10
-1.65522e-08
1.38875e-09
-2.14849e-08
2.75325e-09
-2.65384e-08
5.4045e-09
-3.04047e-08
8.87762e-09
-3.40898e-08
1.07297e-08
-3.66206e-08
9.33052e-09
-3.32244e-08
3.89502e-09
-1.75216e-08
-1.30256e-09
-1.05117e-08
-8.70746e-10
-1.02348e-08
-5.76462e-10
-6.35689e-08
-4.71969e-10
-2.5821e-07
-1.43994e-08
-1.59097e-06
-1.22006e-07
-6.12986e-06
-6.10469e-07
-7.76544e-06
-1.94742e-06
-7.47915e-06
-3.06635e-06
-6.32347e-06
-3.65858e-06
-4.68263e-06
-3.13349e-06
-2.32156e-06
-2.36135e-06
-1.36265e-10
-4.93174e-12
-5.85886e-10
-1.03679e-11
-1.34984e-09
3.18553e-11
-2.14926e-09
1.73175e-10
-2.99835e-09
3.9998e-10
-4.00447e-09
8.4172e-10
-4.86459e-09
1.67939e-09
-4.87946e-09
2.84054e-09
-3.89903e-09
3.52625e-09
-2.7532e-09
2.87348e-09
-2.37062e-09
9.58567e-10
-1.86643e-09
-8.89327e-10
-9.97946e-10
-2.05622e-10
-8.64474e-10
-1.52152e-10
-1.25562e-09
-9.7484e-11
-1.68315e-08
-8.56158e-11
-1.35858e-07
-2.70173e-09
-7.20897e-07
-2.18293e-08
-2.75268e-06
-1.09211e-07
-4.69518e-06
-6.13899e-07
-5.59843e-06
-2.06731e-06
-5.17721e-06
-2.69379e-06
-1.78465e-06
-4.65086e-06
-1.59149e-11
1.46286e-12
-7.46069e-11
5.21267e-12
-1.85073e-10
1.97836e-11
-3.11623e-10
5.31549e-11
-4.49539e-10
1.14224e-10
-6.02273e-10
2.40424e-10
-6.46412e-10
4.76051e-10
-3.62901e-10
8.13962e-10
3.03853e-10
9.8647e-10
8.64436e-10
7.75507e-10
6.89443e-10
2.26037e-10
1.29344e-10
-3.22307e-10
3.69166e-12
3.24513e-11
-4.15669e-11
2.41837e-11
-3.11776e-11
-1.98919e-11
-5.20341e-11
-6.02818e-12
-2.73279e-09
-1.38223e-12
-2.49491e-08
1.16979e-13
-1.34775e-07
2.87214e-12
-7.49993e-07
6.20259e-12
-2.26016e-06
3.04983e-14
-1.49903e-06
5.38016e-13
2.6455e-12
-3.22764e-07
-1.60184e-12
7.2977e-13
-8.10717e-12
2.30516e-12
-2.08498e-11
6.46982e-12
-3.52872e-11
1.42349e-11
-4.9148e-11
3.02754e-11
-5.29435e-11
6.40041e-11
-1.1764e-11
1.25441e-10
1.44112e-10
2.06338e-10
3.7313e-10
2.47969e-10
5.49762e-10
1.93347e-10
4.40455e-10
5.82618e-11
1.61535e-10
-8.79019e-11
5.23889e-11
-4.22766e-12
-2.30942e-13
3.01265e-11
3.24708e-14
5.52428e-12
6.86762e-13
2.43146e-14
3.52124e-14
-4.16323e-14
1.45558e-12
-5.39593e-13
3.5874e-12
-4.90379e-13
2.59617e-14
-4.58235e-13
5.75968e-13
-4.06296e-13
3.21063e-12
-3.96243e-13
-2.50717e-13
1.20775e-11
-9.0698e-14
2.44504e-13
-5.63738e-13
7.17345e-13
-1.36323e-12
1.77963e-12
-1.74795e-12
3.68109e-12
-4.52754e-13
7.57892e-12
8.1479e-12
1.54072e-11
3.3821e-11
2.95417e-11
8.53512e-11
4.76604e-11
1.50566e-10
5.69855e-11
1.98998e-10
4.46248e-11
1.69169e-10
1.4821e-11
8.39845e-11
-2.02654e-11
4.60705e-11
-1.86434e-11
1.24255e-11
1.35579e-12
-1.77807e-12
6.33143e-12
-4.96032e-13
1.23769e-12
2.47036e-13
3.58625e-13
6.96707e-13
3.08438e-14
3.12607e-14
-8.98974e-14
-4.86094e-14
-4.65814e-13
-1.31583e-13
-7.17295e-13
-1.16723e-13
-7.12803e-13
-2.99445e-13
-1.13406e-13
1.81956e-14
8.15305e-14
6.03527e-14
2.14091e-13
2.30242e-13
4.54731e-13
7.53864e-13
8.59755e-13
2.17524e-12
1.70296e-12
5.84525e-12
3.3627e-12
1.4011e-11
6.32632e-12
2.82145e-11
1.00311e-11
4.503e-11
1.19414e-11
5.67241e-11
9.39934e-12
5.06536e-11
3.60167e-12
2.67924e-11
-3.81228e-12
1.54269e-11
-4.30187e-12
1.05729e-11
-2.88845e-12
2.58694e-12
4.11342e-13
2.04667e-13
8.57733e-13
3.44434e-13
1.71221e-13
5.69287e-13
1.48645e-14
4.80034e-13
-3.39615e-14
5.21786e-13
-4.24212e-14
3.45354e-13
-7.58095e-14
8.73178e-14
-2.8478e-13
-3.63376e-13
-3.05124e-14
8.14648e-15
3.1455e-14
4.01746e-14
7.01014e-14
1.26461e-13
1.19612e-13
3.24165e-13
2.0783e-13
7.69189e-13
3.50736e-13
1.78902e-12
6.62554e-13
3.85533e-12
1.23152e-12
7.23119e-12
1.91808e-12
1.10997e-11
2.29089e-12
1.36554e-11
1.84622e-12
1.27823e-11
8.35441e-13
7.50831e-12
-5.99002e-13
3.94762e-12
-7.33488e-13
2.41453e-12
-4.58541e-13
1.72675e-12
-2.11179e-13
6.11005e-13
1.29732e-13
1.93444e-13
9.0063e-14
1.58974e-13
1.70682e-14
1.38573e-13
-1.46804e-15
1.20053e-13
-2.0653e-14
1.10488e-13
-3.3073e-14
9.71784e-14
-2.5885e-14
-3.66895e-14
1.24347e-13
2.1183e-15
1.55067e-14
1.15461e-14
2.69198e-14
3.49411e-14
3.09097e-14
8.07958e-14
5.38283e-14
1.80828e-13
8.28302e-14
4.05018e-13
1.32994e-13
8.42458e-13
2.21792e-13
1.54061e-12
3.32976e-13
2.33418e-12
4.08721e-13
2.85232e-12
3.6076e-13
2.76859e-12
1.93756e-13
1.77727e-12
-6.07828e-14
9.9243e-13
-8.9013e-14
5.5769e-13
-1.48059e-14
3.87623e-13
1.55545e-14
2.98377e-13
3.14684e-14
1.68686e-13
3.10415e-14
9.60614e-14
1.32234e-14
6.76273e-14
1.4554e-15
5.01929e-14
-4.63203e-15
3.25819e-14
-8.70127e-15
1.63915e-14
-9.69688e-15
-1.13678e-14
1.34045e-14
6.67267e-16
5.75081e-15
3.11306e-15
1.00766e-14
7.93359e-15
1.31702e-14
1.7549e-14
1.67129e-14
3.62105e-14
1.95482e-14
7.50104e-14
2.56331e-14
1.50522e-13
4.3477e-14
2.74518e-13
6.38502e-14
4.24922e-13
7.72349e-14
5.26054e-13
6.97331e-14
5.27731e-13
4.46167e-14
3.64287e-13
7.8671e-15
2.23942e-13
1.44185e-14
1.47732e-13
2.36402e-14
1.15034e-13
2.1254e-14
9.58584e-14
1.49441e-14
6.82831e-14
9.08111e-15
4.27668e-14
3.99233e-15
3.01324e-14
8.44566e-16
2.42448e-14
-8.23046e-16
2.05553e-14
-2.1222e-15
1.74101e-14
-3.14476e-15
-3.67919e-15
1.14304e-14
1.96408e-16
1.34926e-15
9.2413e-16
2.70462e-15
2.1221e-15
4.10494e-15
4.0108e-15
4.98244e-15
7.27726e-15
5.94445e-15
1.35326e-14
7.36468e-15
2.61511e-14
9.41637e-15
4.63128e-14
1.1035e-14
7.05951e-14
1.27352e-14
8.69961e-14
1.25702e-14
8.92592e-14
1.07062e-14
6.69647e-14
1.07795e-14
4.93532e-14
9.85081e-15
4.09269e-14
8.76125e-15
3.36283e-14
6.16708e-15
2.49853e-14
3.48781e-15
1.59994e-14
1.56226e-15
9.80934e-15
5.47809e-16
7.39712e-15
1.31513e-16
6.81124e-15
-6.09128e-17
6.41551e-15
-2.27633e-16
5.5935e-15
-4.69424e-16
-6.36936e-16
4.49558e-15
4.47502e-17
2.42129e-16
2.24644e-16
5.17754e-16
5.05829e-16
7.74046e-16
9.19674e-16
1.01287e-15
1.564e-15
1.28455e-15
2.6623e-15
1.63526e-15
4.50841e-15
1.99236e-15
7.27357e-15
2.40108e-15
1.05423e-14
2.79287e-15
1.28293e-14
2.98108e-15
1.34725e-14
2.73088e-15
1.20474e-14
2.45375e-15
9.99162e-15
1.92202e-15
7.71038e-15
1.20279e-15
5.14001e-15
6.34926e-16
3.08005e-15
1.05627e-15
1.67046e-15
6.66058e-16
8.66063e-16
2.09202e-16
6.42651e-16
4.43507e-17
6.30519e-16
5.75256e-18
8.58838e-16
9.31598e-18
1.02142e-15
1.25384e-18
-4.11858e-17
9.63245e-16
8.4713e-18
3.87144e-17
4.46887e-17
8.61494e-17
9.69681e-17
1.22888e-16
1.70362e-16
1.53721e-16
2.79133e-16
1.86194e-16
4.5547e-16
2.28998e-16
7.31087e-16
2.83776e-16
1.10678e-15
3.44937e-16
1.52265e-15
4.43753e-16
1.81464e-15
5.22504e-16
1.81398e-15
4.91654e-16
1.40136e-15
1.61724e-15
1.02372e-15
1.13508e-15
7.11733e-16
6.26762e-16
6.33883e-16
2.90349e-16
1.57018e-16
4.58375e-17
-2.78757e-16
-5.83684e-17
-3.99843e-16
-5.18585e-17
-3.14562e-16
-1.62336e-17
-1.82026e-16
9.29951e-18
-7.60105e-17
1.96926e-17
-5.8951e-18
1.60112e-17
8.99993e-18
8.28546e-17
1.42287e-18
5.72648e-18
7.79906e-18
1.32012e-17
1.61648e-17
1.80195e-17
2.71857e-17
2.14735e-17
4.2242e-17
2.45399e-17
6.33245e-17
2.71531e-17
9.20633e-17
3.41402e-17
1.52485e-16
7.04733e-17
2.23692e-16
2.93578e-16
3.07546e-16
3.05597e-16
3.05348e-16
2.40187e-16
3.45174e-17
2.23122e-17
-3.91021e-16
-2.10197e-16
-8.2017e-16
-3.6091e-16
-1.11646e-15
-3.91897e-16
-1.1988e-15
-3.21641e-16
-1.07565e-15
-2.04592e-16
-8.3112e-16
-9.59375e-17
-5.64551e-16
-2.43354e-17
-3.42479e-16
5.3983e-18
-1.83664e-16
1.01866e-17
-8.72489e-17
8.39572e-18
5.12264e-18
-3.57147e-17
2.16615e-19
7.78082e-19
1.22675e-18
1.85691e-18
2.42627e-18
2.4295e-18
3.88219e-18
2.75864e-18
5.58853e-18
2.91601e-18
8.62052e-18
2.83835e-18
1.53789e-17
1.41848e-17
1.78559e-17
2.2022e-17
-5.01776e-18
-5.17029e-18
-6.52656e-17
-5.64658e-17
-1.79663e-16
-1.30552e-16
-3.60526e-16
-2.19042e-16
-5.72969e-16
-2.88151e-16
-7.4932e-16
-3.06559e-16
-8.26948e-16
-2.67563e-16
-7.84167e-16
-1.91529e-16
-6.49902e-16
-1.10292e-16
-4.77275e-16
-4.71938e-17
-3.13976e-16
-9.78368e-18
-1.86565e-16
2.16457e-18
-1.01363e-16
3.22211e-18
-5.04723e-17
2.50477e-18
1.49324e-18
-2.30456e-17
3.00985e-20
9.67621e-20
1.7496e-19
2.38509e-19
3.296e-19
2.98899e-19
4.95184e-19
3.21339e-19
6.58605e-19
3.0454e-19
1.23078e-18
7.86395e-19
6.87456e-19
9.79936e-19
-5.56264e-18
-6.5456e-18
-2.32732e-17
-2.28242e-17
-5.77663e-17
-4.74184e-17
-1.1221e-16
-7.70565e-17
-1.83591e-16
-1.04884e-16
-2.5702e-16
-1.20751e-16
-3.09247e-16
-1.17166e-16
-3.22005e-16
-9.53144e-17
-2.9256e-16
-6.41796e-17
-2.3409e-16
-3.45664e-17
-1.66186e-16
-1.32947e-17
-1.05274e-16
-1.6815e-18
-6.01881e-17
6.13934e-19
-3.19759e-17
7.00761e-19
-1.57997e-17
4.95672e-19
2.78886e-19
-7.27835e-18
3.83168e-21
1.1016e-20
2.26794e-20
2.79724e-20
4.04567e-20
3.35125e-20
5.66389e-20
3.36146e-20
1.07437e-19
3.2706e-20
8.77048e-20
1.47952e-19
-7.02768e-19
-9.6157e-19
-3.52153e-18
-3.96851e-18
-9.85949e-18
-9.2314e-18
-2.10555e-17
-1.64345e-17
-3.74071e-17
-2.43003e-17
-5.71058e-17
-3.06588e-17
-7.55258e-17
-3.30588e-17
-8.67368e-17
-3.02601e-17
-8.68448e-17
-2.32743e-17
-7.61217e-17
-1.47213e-17
-5.86245e-17
-7.26113e-18
-3.97489e-17
-2.33197e-18
-2.37383e-17
9.70466e-21
-1.28591e-17
1.19406e-19
-6.53993e-18
1.06402e-19
-3.12545e-18
6.70592e-20
3.48173e-20
-1.40726e-18
4.47219e-22
1.14773e-21
2.67237e-21
2.99591e-21
4.47106e-21
3.41919e-21
6.95952e-21
3.13583e-21
1.03862e-20
1.69201e-20
-3.61028e-20
-5.87743e-20
-3.30418e-19
-4.35534e-19
-1.14567e-18
-1.24043e-18
-2.78258e-18
-2.49372e-18
-5.4669e-18
-4.06419e-18
-9.12842e-18
-5.61196e-18
-1.32111e-17
-6.65661e-18
-1.66405e-17
-6.76015e-18
-1.82654e-17
-5.82295e-18
-1.75016e-17
-4.1875e-18
-1.46389e-17
-2.43079e-18
-1.06657e-17
-1.04599e-18
-6.7411e-18
-2.3397e-19
-3.6653e-18
1.03388e-20
-1.86261e-18
1.55247e-20
-8.92322e-19
1.10736e-20
-4.04628e-19
6.13735e-21
2.86382e-21
-1.74138e-19
4.77499e-23
1.09322e-22
2.85468e-22
2.92901e-22
4.50903e-22
3.16124e-22
9.03286e-22
2.5991e-22
2.08033e-22
4.15341e-22
-1.84876e-20
-2.91563e-20
-9.50643e-20
-1.21144e-19
-2.78275e-19
-2.90364e-19
-6.14006e-19
-5.27979e-19
-1.12415e-18
-7.97163e-19
-1.76736e-18
-1.02839e-18
-2.41819e-18
-1.14135e-18
-2.88335e-18
-1.08175e-18
-2.99486e-18
-8.63768e-19
-2.70609e-18
-5.67109e-19
-2.11639e-18
-2.90182e-19
-1.4195e-18
-9.94458e-20
-8.06154e-19
-6.35344e-21
-3.91786e-19
1.54627e-21
-1.82377e-19
1.32329e-21
-8.08543e-20
7.67556e-22
-3.41688e-20
3.68483e-22
1.26376e-22
-1.36541e-20
4.64649e-24
9.50958e-24
2.74416e-23
2.61204e-23
4.22746e-23
2.63938e-23
7.8218e-23
2.47573e-23
-4.17317e-22
-8.11465e-22
-5.24246e-21
-8.04291e-21
-2.1094e-20
-2.60882e-20
-5.48617e-20
-5.53552e-20
-1.11404e-19
-9.2161e-20
-1.90155e-19
-1.28833e-19
-2.80016e-19
-1.54228e-19
-3.59068e-19
-1.58385e-19
-4.00469e-19
-1.37892e-19
-3.87303e-19
-9.97494e-20
-3.22958e-19
-5.77101e-20
-2.29435e-19
-2.43944e-20
-1.36182e-19
-5.38355e-21
-6.53955e-20
8.68375e-23
-2.8509e-20
1.18048e-22
-1.19153e-20
7.17429e-23
-4.78325e-21
3.41624e-23
-1.83999e-21
1.32169e-23
-2.68899e-23
-5.55929e-22
4.10538e-25
7.54987e-25
2.36538e-24
2.12254e-24
4.61401e-24
2.00622e-24
5.9733e-24
1.49532e-23
-1.51209e-22
-2.87857e-22
-1.12401e-21
-1.68578e-21
-3.84872e-21
-4.64038e-21
-9.0593e-21
-8.87404e-21
-1.69737e-20
-1.35522e-20
-2.6898e-20
-1.74471e-20
-3.67924e-20
-1.91865e-20
-4.3695e-20
-1.79647e-20
-4.48683e-20
-1.40704e-20
-3.95584e-20
-8.94077e-21
-2.9582e-20
-4.33084e-21
-1.83435e-20
-1.34623e-21
-9.08396e-21
-5.58066e-23
-3.5576e-21
8.16321e-24
-1.3625e-21
5.35011e-24
-5.03983e-22
2.452e-24
-1.79638e-22
9.38532e-25
-5.79785e-23
-3.76227e-25
-3.71193e-23
2.14079e-22
3.28458e-26
5.47161e-26
1.85568e-25
1.56962e-25
4.50302e-25
1.38847e-25
-4.77506e-25
-1.17828e-24
-3.48094e-23
-6.5282e-23
-1.96869e-22
-2.9033e-22
-5.92842e-22
-7.006e-22
-1.27139e-21
-1.21489e-21
-2.19358e-21
-1.6971e-21
-3.20591e-21
-1.99622e-21
-4.03143e-21
-1.99168e-21
-4.37122e-21
-1.67013e-21
-4.0535e-21
-1.14654e-21
-3.17268e-21
-6.14242e-22
-2.04919e-21
-2.30325e-22
-1.04812e-21
-3.9756e-23
-3.91507e-22
3.91195e-25
-1.32095e-22
3.35042e-25
-4.30719e-23
1.48292e-25
-1.36482e-23
5.29551e-26
-4.13954e-24
8.28806e-27
6.19348e-24
-8.96812e-25
-3.50312e-23
2.27091e-22
2.37663e-27
3.62387e-27
1.36526e-26
1.05553e-26
3.1627e-26
8.56387e-27
-3.16057e-25
-7.7482e-25
-6.22263e-24
-1.15822e-23
-2.90606e-23
-4.24378e-23
-7.81163e-23
-9.10796e-23
-1.52815e-22
-1.43302e-22
-2.41709e-22
-1.82125e-22
-3.23087e-22
-1.93826e-22
-3.69009e-22
-1.72916e-22
-3.59234e-22
-1.2713e-22
-2.93922e-22
-7.40521e-23
-1.97551e-22
-3.16161e-23
-1.04787e-22
-7.99414e-24
-4.06083e-23
6.11001e-28
-1.14644e-23
1.88361e-26
-3.21368e-24
8.3829e-27
-8.83777e-25
2.71173e-27
-2.36525e-25
7.37432e-28
-3.05753e-26
-1.02603e-26
5.77058e-24
-7.86489e-25
-2.18392e-23
1.54806e-22
1.55557e-28
2.19795e-28
9.09937e-28
6.46185e-28
1.96657e-27
6.27574e-28
-7.46577e-26
-1.83524e-25
-9.18068e-25
-1.71103e-24
-3.67289e-24
-5.35646e-24
-8.87206e-24
-1.02885e-23
-1.58042e-23
-1.46528e-23
-2.27766e-23
-1.68234e-23
-2.75745e-23
-1.60161e-23
-2.821e-23
-1.2563e-23
-2.41809e-23
-7.89659e-24
-1.69746e-23
-3.74558e-24
-9.39148e-24
-1.17334e-24
-3.81448e-24
-1.43171e-25
-9.71011e-25
8.75839e-28
-2.35366e-25
4.56656e-28
-5.48676e-26
1.36291e-28
-1.24091e-26
3.37023e-29
-2.66883e-27
3.01307e-30
6.23219e-26
-6.8161e-27
3.29395e-24
-3.82493e-25
-8.93947e-24
7.09113e-23
9.2228e-30
1.22445e-29
7.25701e-29
3.61045e-29
1.08053e-28
3.77124e-28
-1.25264e-26
-3.12155e-26
-1.14875e-25
-2.16667e-25
-4.01202e-25
-5.90393e-25
-8.72959e-25
-1.01692e-24
-1.41095e-24
-1.30549e-24
-1.83919e-24
-1.34277e-24
-1.99447e-24
-1.12888e-24
-1.79904e-24
-7.63743e-25
-1.32735e-24
-3.98245e-25
-7.72755e-25
-1.45794e-25
-3.33187e-25
-2.92348e-26
-9.36338e-26
7.64197e-30
-1.81011e-26
2.4634e-29
-3.45764e-27
7.44287e-30
-6.52841e-28
1.66116e-30
-1.2123e-28
3.21003e-31
-8.89574e-30
-1.0687e-30
2.36081e-26
-1.98311e-27
1.15626e-24
-1.10918e-25
-2.84697e-24
2.26281e-23
4.96273e-31
6.28545e-31
5.10482e-30
1.85338e-30
-4.79981e-30
-1.72184e-29
-1.68249e-27
-4.30612e-27
-1.23763e-26
-2.3929e-26
-3.81244e-26
-5.73282e-26
-7.47126e-26
-8.85062e-26
-1.09043e-25
-1.01867e-25
-1.2749e-25
-9.29816e-26
-1.22318e-25
-6.80466e-26
-9.55573e-26
-3.88433e-26
-5.91015e-26
-1.62047e-26
-2.73759e-26
-4.25687e-27
-8.55939e-27
-4.0804e-28
-1.44947e-27
1.18586e-30
-2.40831e-28
4.27711e-31
-3.87879e-29
8.74066e-32
-6.05962e-30
1.48828e-32
-9.2121e-31
2.2859e-33
5.85535e-30
-7.38712e-32
5.01262e-27
-3.08017e-28
2.59393e-25
-2.26677e-26
-8.42573e-25
5.93781e-24
2.42503e-32
2.98062e-32
2.53681e-31
8.6719e-32
-2.71149e-30
-1.01571e-29
-1.89301e-28
-5.05483e-28
-1.15958e-27
-2.33437e-27
-3.16838e-27
-4.94392e-27
-5.5828e-27
-6.82756e-27
-7.31592e-27
-7.00135e-27
-7.60136e-27
-5.61305e-27
-6.3648e-27
-3.51953e-27
-4.22059e-27
-1.65324e-27
-2.12181e-27
-5.28018e-28
-7.43209e-28
-8.9521e-29
-1.53255e-28
-5.52865e-31
-2.01093e-29
2.49336e-32
-2.604e-30
5.35346e-33
-3.33844e-31
8.30668e-34
-4.23178e-32
1.11409e-34
-5.27736e-33
1.33558e-35
1.55201e-31
-6.20679e-34
6.05174e-28
-3.05375e-29
4.27842e-26
-3.76245e-27
-2.07252e-25
1.45726e-24
1.07556e-33
1.30358e-33
1.1317e-32
4.17409e-33
-4.73987e-31
-1.88989e-30
-1.82644e-29
-5.18566e-29
-9.52211e-29
-2.03366e-28
-2.3145e-28
-3.81794e-28
-3.65687e-28
-4.70257e-28
-4.27531e-28
-4.26736e-28
-3.90807e-28
-2.97197e-28
-2.81335e-28
-1.56935e-28
-1.54812e-28
-5.89668e-29
-6.10336e-29
-1.36589e-29
-1.51957e-29
-1.25423e-30
-1.82961e-30
1.08771e-33
-2.06281e-31
3.39168e-34
-2.25795e-32
4.93107e-35
-2.40529e-33
5.85565e-36
-2.50008e-34
6.25618e-37
-2.48706e-35
3.4907e-38
1.54945e-33
-3.31261e-34
4.81699e-29
-2.44047e-30
5.73455e-27
-4.70591e-28
-3.19502e-26
2.85891e-25
4.85677e-35
5.57182e-35
4.51138e-34
2.06971e-33
-5.83012e-32
-2.53164e-31
-1.53423e-30
-4.73609e-30
-6.90223e-30
-1.5987e-29
-1.49426e-29
-2.66359e-29
-2.10967e-29
-2.91612e-29
-2.18522e-29
-2.3254e-29
-1.73842e-29
-1.39094e-29
-1.05849e-29
-6.07315e-30
-4.7129e-30
-1.76845e-30
-1.39805e-30
-2.77787e-31
-2.29975e-31
-9.27647e-33
-2.00447e-32
2.28902e-35
-1.74582e-33
3.71352e-36
-1.51666e-34
3.95292e-37
-1.30731e-35
3.58758e-38
-1.11208e-36
2.96635e-39
-5.22612e-38
-4.37779e-38
8.69576e-34
-7.39973e-34
3.15194e-30
-2.41758e-31
5.66533e-28
-3.73007e-29
-2.97762e-27
3.4248e-26
2.73696e-36
2.73692e-35
5.62607e-36
4.32608e-35
-5.76119e-33
-2.79662e-32
-1.13583e-31
-3.90862e-31
-4.45049e-31
-1.14586e-30
-8.58205e-31
-1.69478e-30
-1.07839e-30
-1.64362e-30
-9.82311e-31
-1.14405e-30
-6.72279e-31
-5.81221e-31
-3.40143e-31