/*--------------------------------*- C++ -*----------------------------------*\
| =========                 |                                                 |
| \\      /  F ield         | OpenFOAM: The Open Source CFD Toolbox           |
|  \\    /   O peration     | Version:  v2012                                 |
|   \\  /    A nd           | Website:  www.openfoam.com                      |
|    \\/     M anipulation  |                                                 |
\*---------------------------------------------------------------------------*/
FoamFile
{
    version     2.0;
    format      ascii;
    class       volScalarField;
    location    "1";
    object      epsilon;
}
// * * * * * * * * * * * * * * * * * * * * * * * * * * * * * * * * * * * * * //

dimensions      [0 2 -3 0 0 0 0];


internalField   nonuniform List<scalar> 
2268
(
0.00946767
0.0246525
0.0394727
0.0532693
0.0659785
0.0779229
0.0894064
0.100534
0.111441
0.122503
0.13451
0.148895
0.168459
0.195401
0.231225
0.276362
0.327846
0.375187
0.396261
0.360409
0.249985
0.116511
0.0308749
0.0153234
0.0223199
0.0304328
0.0375455
0.0438206
0.0493077
0.0540905
0.0582501
0.0619597
0.0655703
0.0696778
0.0752007
0.083606
0.0961623
0.11341
0.135623
0.161291
0.185614
0.199455
0.189902
0.144621
0.0840143
0.0457345
0.02284
0.0237176
0.0301883
0.0358431
0.0405665
0.0444593
0.0476924
0.0504579
0.0530508
0.0559533
0.0598886
0.065844
0.0751164
0.088821
0.107752
0.13198
0.159702
0.18614
0.2031
0.199417
0.163426
0.102827
0.073435
0.0292904
0.0254039
0.0311113
0.0361719
0.0402124
0.0434171
0.0460504
0.0484057
0.0508956
0.0541482
0.0590579
0.0667939
0.0787673
0.0961854
0.119822
0.149339
0.182267
0.213401
0.234777
0.235489
0.204116
0.139091
0.103343
0.0348972
0.0270906
0.0323048
0.0370422
0.0407106
0.0435676
0.0459686
0.0483106
0.051138
0.055252
0.0617631
0.0720859
0.0878287
0.110203
0.139644
0.175071
0.213248
0.248915
0.274848
0.280369
0.253548
0.188512
0.137363
0.0398374
0.0287059
0.0335397
0.0380792
0.0415407
0.0442413
0.0466286
0.0492175
0.0527128
0.0581292
0.0668388
0.0805368
0.100985
0.129096
0.164496
0.205083
0.247143
0.286203
0.316367
0.327095
0.306235
0.247505
0.17692
0.0442003
0.0301984
0.0347199
0.0391442
0.0425149
0.0452001
0.0477475
0.0508177
0.0553225
0.0625458
0.0741653
0.092154
0.118252
0.152479
0.193081
0.236952
0.280727
0.321775
0.355643
0.371253
0.357809
0.312163
0.247279
0.0479964
0.0315261
0.0357942
0.0401741
0.043554
0.0463502
0.0492293
0.0530451
0.0589912
0.0686981
0.0841794
0.10763
0.140424
0.180636
0.224609
0.268839
0.311793
0.353667
0.390636
0.409544
0.402637
0.377089
0.414958
0.224914
0.274579
0.394899
0.556504
0.728393
0.906454
1.06907
1.18886
1.35664
1.64904
2.05999
2.23915
1.69039
0.879587
0.393576
0.235797
0.181926
0.132985
0.0537761
0.255844
0.354511
0.394479
0.41102
0.451842
0.517781
0.595739
0.655149
0.718423
0.824431
0.975994
1.04338
0.84882
0.530092
0.296341
0.185481
0.142129
0.106875
0.05141
0.364585
0.365342
0.367487
0.375277
0.425522
0.518935
0.610758
0.659812
0.67874
0.737806
0.878701
0.958891
0.848217
0.627922
0.399826
0.235267
0.143257
0.0982409
0.0654092
0.431771
0.363201
0.354106
0.368128
0.449236
0.58703
0.68939
0.765495
0.758243
0.757072
0.893751
0.986245
0.936368
0.77941
0.568202
0.352476
0.189453
0.105145
0.080413
0.478548
0.358323
0.349507
0.381583
0.508135
0.602331
0.660638
0.781012
0.814444
0.792548
0.864201
0.969691
1.00063
0.918734
0.742444
0.513537
0.316721
0.178669
0.107271
0.512563
0.352138
0.349607
0.421071
0.537655
0.572503
0.611511
0.676436
0.737083
0.789074
0.834583
0.924599
0.991994
0.986314
0.876539
0.669112
0.496736
0.371721
0.28167
0.541678
0.347577
0.355143
0.452218
0.526681
0.544418
0.576706
0.631913
0.697024
0.78168
0.821257
0.88056
0.946941
0.970498
0.914774
0.761258
0.630354
0.513571
0.622451
0.577408
0.350216
0.371148
0.469516
0.516276
0.522681
0.552735
0.611057
0.700543
0.807469
0.824463
0.847009
0.895322
0.918826
0.88452
0.81619
0.715737
0.590521
0.868846
0.0531656
0.0333259
0.0372823
0.0417024
0.0452501
0.0484239
0.0521307
0.0576516
0.0668068
0.0819373
0.10554
0.139582
0.183372
0.230348
0.27404
0.313116
0.352014
0.394671
0.432814
0.447808
0.438916
0.422686
0.413979
0.0548649
0.0340405
0.0380963
0.0429262
0.0470877
0.0512541
0.0569222
0.0666032
0.0841052
0.114037
0.159587
0.218538
0.2803
0.327597
0.359559
0.387201
0.417071
0.462281
0.47993
0.465416
0.433588
0.405549
0.381608
0.0526141
0.0335072
0.0379798
0.0434923
0.0485734
0.0541994
0.0629832
0.0800528
0.113987
0.174979
0.2655
0.366955
0.450299
0.511546
0.540528
0.601175
0.609842
0.599709
0.544115
0.481172
0.45433
0.44427
0.421089
0.0476331
0.0321255
0.0369492
0.0431585
0.0493152
0.0569968
0.0709395
0.101933
0.17033
0.299552
0.484619
0.66762
0.800623
0.964504
1.12209
1.09047
1.00167
0.842929
0.683344
0.554203
0.521267
0.540707
0.551355
0.0439451
0.0311327
0.0352884
0.0418399
0.0494347
0.0609995
0.0880197
0.154243
0.296093
0.538013
0.847604
1.07039
1.15884
1.17239
1.1264
1.07402
1.06925
1.11812
0.928838
0.689016
0.583113
0.589634
0.611497
0.042705
0.0310201
0.034589
0.0421171
0.054135
0.082841
0.207864
0.503747
0.824132
1.00491
1.05208
1.01889
0.98337
0.954973
0.916391
0.887171
0.896526
0.974036
1.1017
0.911771
0.700125
0.61554
0.616221
0.0706331
0.0324185
0.0394592
0.069332
0.166541
0.364474
0.624779
0.861295
0.985743
0.988953
0.943383
0.917017
0.871724
0.819263
0.7895
0.777429
0.787549
0.830636
0.919348
0.972021
0.914462
0.816205
0.693554
0.111281
0.0560086
0.0713483
0.114219
0.209689
0.37898
0.606058
0.818928
0.935835
0.947999
0.923496
0.906204
0.869352
0.821329
0.792816
0.775827
0.768326
0.795991
0.846793
0.90073
0.934889
0.939708
0.933469
0.126361
0.0691438
0.0791448
0.115287
0.19392
0.333064
0.528374
0.72896
0.860159
0.900698
0.911164
0.949288
0.992773
1.01443
0.975202
0.883453
0.817548
0.8231
0.841477
0.880487
0.91716
0.946291
0.977549
0.127541
0.0709106
0.0794115
0.109505
0.172033
0.281231
0.439268
0.615205
0.750641
0.813614
0.841119
0.89478
0.981668
1.07222
1.12892
1.13007
1.06154
0.909659
0.88381
0.887491
0.913322
0.943489
0.975506
0.122381
0.0672943
0.0741803
0.0984776
0.146632
0.229449
0.352071
0.499091
0.630488
0.709658
0.747061
0.790749
0.86524
0.965126
1.07456
1.19062
1.28799
1.29106
1.14267
0.946403
0.939788
0.939043
0.973253
0.117304
0.0629952
0.0671416
0.0857032
0.121651
0.182744
0.275028
0.394666
0.512755
0.598624
0.647069
0.683258
0.731829
0.801294
0.892756
1.01331
1.16945
1.3196
1.38629
1.35138
1.17099
1.01722
1.05279
0.114974
0.0606375
0.061598
0.0749288
0.101146
0.145964
0.214318
0.305486
0.404278
0.488451
0.545623
0.582878
0.61589
0.656753
0.713491
0.794251
0.90563
1.04416
1.17232
1.25917
1.26657
1.21961
1.17118
0.116702
0.0609821
0.0588184
0.0679384
0.0868833
0.11902
0.168146
0.235098
0.312799
0.387447
0.446753
0.488115
0.517587
0.543899
0.57531
0.619143
0.680516
0.759899
0.85391
0.938861
0.998975
1.03878
1.06468
0.120522
0.0630411
0.0583315
0.0641634
0.0776204
0.100467
0.135265
0.183227
0.241474
0.302411
0.356957
0.399569
0.430252
0.452925
0.473126
0.496392
0.52691
0.566667
0.617306
0.674205
0.730481
0.785264
0.836337
0.124545
0.0656008
0.0590874
0.0625203
0.0720348
0.0883097
0.112919
0.146902
0.189268
0.236181
0.281942
0.321495
0.352465
0.375427
0.392986
0.408555
0.425235
0.445196
0.470239
0.502899
0.541126
0.585094
0.633684
0.127787
0.0679016
0.0602086
0.0619757
0.0687562
0.0805049
0.09809
0.12224
0.152696
0.187616
0.223749
0.257513
0.286299
0.309171
0.32677
0.340729
0.352974
0.365242
0.379184
0.397388
0.420592
0.449892
0.485836
0.129777
0.0695286
0.0611165
0.0617597
0.0666796
0.0753584
0.0881873
0.105612
0.127609
0.153307
0.180938
0.208253
0.233208
0.254529
0.271911
0.285846
0.29728
0.307313
0.317149
0.328535
0.342825
0.361332
0.385359
0.13036
0.0703177
0.0615144
0.0614077
0.0650622
0.0716629
0.081289
0.0941725
0.110339
0.129369
0.150312
0.171836
0.192546
0.211341
0.227616
0.241285
0.252653
0.262258
0.270813
0.279378
0.289113
0.301152
0.316892
0.129582
0.0702717
0.0613116
0.0607053
0.0634851
0.0686617
0.0761159
0.0859313
0.098123
0.112477
0.128478
0.145349
0.1622
0.178214
0.192798
0.205647
0.216718
0.226171
0.234336
0.241794
0.249362
0.257891
0.268595
0.127609
0.0694934
0.0605457
0.0596066
0.0617654
0.0659414
0.0718951
0.0796124
0.0890842
0.10019
0.112642
0.125986
0.139665
0.153114
0.165851
0.177532
0.187965
0.197101
0.205021
0.211997
0.218558
0.225295
0.23317
0.124679
0.0681391
0.0593238
0.0581652
0.0598692
0.0633194
0.0682074
0.0744581
0.0820403
0.090877
0.100799
0.111537
0.122741
0.13403
0.145041
0.155465
0.165071
0.173709
0.181329
0.18802
0.194106
0.199982
0.206371
0.121068
0.0663847
0.057784
0.0564842
0.0578461
0.060752
0.0648582
0.0700537
0.0762921
0.0835165
0.0916227
0.100445
0.109762
0.119318
0.128846
0.138091
0.146833
0.154894
0.16216
0.168627
0.174485
0.179988
0.185669
0.117062
0.0644046
0.0560706
0.054685
0.0557842
0.0582695
0.061783
0.0661948
0.0714491
0.0775003
0.0842806
0.0916855
0.0995723
0.107766
0.116074
0.124295
0.132237
0.139726
0.14663
0.152912
0.158667
0.164058
0.169471
0.112936
0.0623568
0.0543179
0.0528863
0.0537802
0.0559323
0.0589827
0.0627933
0.0673046
0.0724781
0.0782681
0.0846075
0.0914026
0.0985338
0.10586
0.113228
0.120476
0.12745
0.134014
0.140158
0.145885
0.151304
0.156696
0.108942
0.0603755
0.0526405
0.0511907
0.051922
0.0538041
0.0564828
0.0598186
0.0637519
0.0682498
0.0732814
0.0788035
0.0847546
0.0910526
0.0975957
0.104266
0.110935
0.117471
0.123763
0.129795
0.135537
0.141059
0.146565
0.105291
0.0585675
0.0511277
0.0496779
0.0502783
0.0519372
0.0543106
0.0572617
0.060733
0.064697
0.0691329
0.0740142
0.0793013
0.0849387
0.0908537
0.0969573
0.103148
0.109316
0.1154
0.12135
0.127134
0.132797
0.138483
0.102146
0.0570122
0.0498439
0.0484037
0.0488964
0.0503674
0.0524851
0.0551177
0.0582111
0.0617427
0.0656996
0.0700669
0.074821
0.0799256
0.0853301
0.0909693
0.0967654
0.102637
0.108548
0.114436
0.120272
0.126085
0.131977
0.0996237
0.0557652
0.0488314
0.0474031
0.0478045
0.0491147
0.0510147
0.0533787
0.0561567
0.0593306
0.0628935
0.0668391
0.0711554
0.0758207
0.0808015
0.0860513
0.0915102
0.0971423
0.102899
0.108731
0.114613
0.120563
0.126658
0.0978041
0.054864
0.0481169
0.0466964
0.0470177
0.0481879
0.0498997
0.0520336
0.0545437
0.0574157
0.0606475
0.064239
0.0681869
0.0724804
0.0770995
0.0820135
0.0871849
0.0925961
0.098202
0.103966
0.109869
0.115927
0.122196
0.0967471
0.0543368
0.0477193
0.046297
0.0465448
0.0475905
0.049137
0.0510704
0.053349
0.0559615
0.0589093
0.0621969
0.065827
0.0697969
0.0740965
0.0787062
0.0836202
0.0888131
0.0942555
0.0999229
0.105806
0.11192
0.118312
0.0965149
0.054213
0.0476586
0.0462193
0.0463949
0.0473262
0.0487239
0.0504793
0.052554
0.0549394
0.0576394
0.0606611
0.0640111
0.0676923
0.0717026
0.0760359
0.080693
0.085656
0.0909073
0.0964346
0.102238
0.108337
0.114778
0.0971934
0.054534
0.0479643
0.0464844
0.0465819
0.047402
0.0486604
0.050253
0.0521445
0.0543284
0.0568095
0.0595963
0.0626968
0.0661168
0.0698582
0.0739286
0.0783236
0.0830354
0.0880566
0.0933858
0.0990334
0.105028
0.111418
0.0989085
0.055362
0.0486801
0.0471231
0.0471251
0.0478269
0.0489471
0.0503852
0.0521085
0.054112
0.0564006
0.0589817
0.0618626
0.0650489
0.068545
0.0723561
0.0764796
0.080913
0.085657
0.09072
0.0961229
0.101904
0.108121
0.101824
0.0567829
0.0498636
0.0481717
0.0480438
0.0486066
0.0495793
0.050864
0.0524304
0.054274
0.0563987
0.0588092
0.0615077
0.064495
0.0677713
0.0713329
0.0751767
0.0793032
0.0837191
0.0884415
0.0935015
0.0989483
0.10485
0.10611
0.058895
0.0515747
0.0496606
0.0493457
0.0497325
0.0505373
0.0516637
0.0530829
0.0547911
0.0567907
0.0590809
0.0616534
0.0644958
0.0675902
0.0709216
0.0744825
0.078275
0.0823115
0.0866173
0.091233
0.0962178
0.101651
0.11187
0.0617783
0.0538516
0.0515934
0.0510094
0.0511669
0.0517744
0.052734
0.0540183
0.0556259
0.0575598
0.0598116
0.0623525
0.0651357
0.0681097
0.0712421
0.0745211
0.0779531
0.0815593
0.0853743
0.0894475
0.0938459
0.0986564
0.119038
0.0654418
0.0566718
0.0539179
0.0529638
0.0528288
0.0532055
0.0539911
0.0551604
0.0567207
0.0586848
0.0610401
0.0637171
0.066578
0.0695182
0.0724874
0.07548
0.0785189
0.0816415
0.0848951
0.0883369
0.0920383
0.0960878
0.127254
0.069756
0.0599061
0.0564963
0.0550698
0.054583
0.0547017
0.0553134
0.0563994
0.0579919
0.060142
0.0628552
0.0659817
0.069132
0.0721308
0.0749465
0.0776182
0.0802095
0.0827863
0.0854113
0.0881476
0.0910652
0.0942471
0.135798
0.074387
0.0632714
0.0590789
0.0571099
0.0562395
0.0560936
0.0565455
0.0575916
0.0593219
0.0618959
0.0654312
0.0696651
0.0733796
0.0764513
0.0790245
0.0812665
0.0833134
0.0852657
0.0871985
0.0891741
0.0912537
0.093506
0.143583
0.0787283
0.0662869
0.0612906
0.0587924
0.0575663
0.0571872
0.0575116
0.0585622
0.0605312
0.0638205
0.0689683
0.0759243
0.0803512
0.0832012
0.0852218
0.0868052
0.0881569
0.0893905
0.0905747
0.091758
0.0929832
0.0942961
0.149104
0.0817279
0.06823
0.0626415
0.0597795
0.0583212
0.0577959
0.0580466
0.0591218
0.061327
0.0654209
0.0730213
0.0875097
0.0915777
0.0931584
0.0940148
0.0946088
0.0950877
0.0955107
0.0959066
0.096294
0.0966882
0.0971061
0.542099
0.387132
0.464495
0.646518
0.400816
0.410587
0.426441
0.457029
0.4171
0.428622
0.451262
0.476508
0.53335
0.526069
0.525364
0.52834
0.59762
0.579092
0.557629
0.541146
0.60793
0.593228
0.577217
0.567863
0.640922
0.631148
0.632633
0.647216
0.955235
0.97851
1.00235
1.01749
1.00288
1.01823
1.03643
1.0523
0.992879
0.99982
1.00336
1.00532
0.987581
0.97542
0.963412
0.95868
1.05701
1.02335
0.978714
0.962026
1.12013
1.07494
1.02863
0.988769
1.05471
1.03365
1.0026
0.969633
0.860058
0.868722
0.870378
0.867639
0.667912
0.689948
0.708969
0.725216
0.515928
0.538484
0.561198
0.583737
0.407596
0.425577
0.445101
0.465952
0.332283
0.345243
0.359953
0.37637
0.279209
0.288293
0.298848
0.310916
0.240787
0.247281
0.254868
0.263609
0.212233
0.217131
0.222797
0.229282
0.190576
0.194552
0.199057
0.204123
0.173913
0.177398
0.181248
0.185481
0.160967
0.164226
0.167744
0.171529
0.150838
0.15403
0.157415
0.160994
0.142855
0.146072
0.149443
0.152965
0.136498
0.139789
0.143213
0.146765
0.131344
0.13473
0.138239
0.141866
0.12704
0.13052
0.134121
0.137838
0.123284
0.126839
0.130519
0.13432
0.119825
0.123421
0.127148
0.131004
0.116468
0.120052
0.123776
0.127641
0.113077
0.116583
0.120238
0.124043
0.109596
0.112942
0.116443
0.120104
0.106054
0.109148
0.112398
0.115813
0.10258
0.105327
0.108224
0.111282
0.0994047
0.101717
0.104165
0.106759
0.0968571
0.0986676
0.100588
0.102631
0.0953501
0.0966216
0.0979718
0.0994107
0.0953659
0.0960984
0.0968759
0.0977048
0.0974451
0.0976758
0.0979204
0.098181
0.451131
0.369308
0.411487
0.502656
0.510018
0.510548
0.540278
0.6017
0.726311
0.845227
0.831462
0.822481
0.840646
0.848691
0.823246
0.788083
0.727405
0.624971
1.04569
0.441502
0.427545
0.513546
0.573903
0.532553
0.536133
0.562108
0.621152
0.728384
0.808602
0.813007
0.820656
0.826676
0.815212
0.79937
0.751362
0.671998
0.553411
0.964609
0.489166
0.523185
0.600305
0.613298
0.59105
0.591906
0.599791
0.642495
0.710553
0.76196
0.785359
0.840237
0.859889
0.845048
0.796826
0.724396
0.614458
0.45549
0.693582
0.531699
0.556852
0.615571
0.671301
0.676051
0.651437
0.640287
0.667112
0.713071
0.75473
0.780826
0.901561
0.93301
0.919374
0.802906
0.681213
0.514551
0.362138
0.460443
0.533871
0.580251
0.681138
0.730794
0.716311
0.692202
0.681065
0.69556
0.71211
0.761574
0.894026
1.07581
1.05455
1.02309
0.855072
0.694712
0.481022
0.373655
0.462845
0.574158
0.654488
0.738202
0.747175
0.734294
0.719462
0.696212
0.691368
0.710092
0.788291
0.942959
1.17218
1.16509
1.13373
0.989291
0.823434
0.596754
0.678204
0.974158
0.697194
0.791869
0.788474
0.767408
0.756263
0.714633
0.678677
0.675541
0.728373
0.829429
0.982964
1.21417
1.21916
1.25507
1.16934
1.07232
1.31586
1.92793
1.56636
1.00756
0.954874
0.876565
0.804494
0.756859
0.699036
0.662732
0.689176
0.807802
0.941534
1.0601
1.15888
1.22149
1.35361
1.34628
1.451
1.9533
2.25152
2.3532
1.05767
1.00268
0.926971
0.838914
0.760389
0.693564
0.66892
0.741295
0.949876
1.03235
1.1187
1.11801
1.16761
1.3323
1.43138
1.85521
2.20445
2.8436
3.1753
1.00513
0.985931
0.939435
0.849498
0.764767
0.700621
0.70034
0.85373
1.02984
1.05187
1.07377
1.06681
1.10721
1.22499
1.34117
1.86458
2.4444
3.52673
3.69657
0.95748
0.959423
0.941464
0.867483
0.792489
0.753238
0.883593
0.998341
1.00607
1.02045
1.02955
1.02282
1.06665
1.17087
1.3262
1.86291
3.02704
4.14814
3.75549
0.951456
0.927258
0.902683
0.885886
0.885611
0.925001
0.966708
0.998555
1.00687
1.02755
1.0291
1.01996
1.06462
1.15295
1.30081
1.97582
3.75983
4.34223
3.35995
0.940066
0.900216
0.896599
0.927343
0.975874
1.02282
1.0355
1.02887
1.02303
1.0546
1.13027
1.08655
1.13775
1.22189
1.43454
2.52807
4.1868
3.87581
2.63192
0.924992
0.898328
0.918345
0.976887
1.04968
1.10645
1.1159
1.09039
1.07226
1.12409
1.26457
1.38456
1.40078
1.52214
1.95544
2.86747
3.58971
2.85176
1.78051
0.860448
0.86561
0.908082
0.98459
1.07398
1.14673
1.17723
1.16454
1.14887
1.19958
1.35407
1.56201
1.75816
1.94178
2.16342
2.48817
2.60284
2.04513
1.3386
0.749073
0.784863
0.845205
0.93134
1.02993
1.11759
1.17242
1.18854
1.18674
1.21673
1.32001
1.48034
1.64928
1.79284
1.88754
1.94039
1.98341
1.69398
1.25983
0.621097
0.673039
0.740144
0.827804
0.928011
1.02402
1.09731
1.13828
1.15338
1.16856
1.2167
1.3008
1.3962
1.47422
1.51316
1.53555
1.694
1.63838
1.2529
0.502874
0.556027
0.620943
0.700961
0.793641
0.889504
0.971355
1.02864
1.05829
1.06997
1.08509
1.1129
1.14794
1.1804
1.21128
1.2848
1.55875
1.71294
1.28542
0.406681
0.452317
0.508268
0.576458
0.655928
0.74096
0.82076
0.884346
0.923429
0.939891
0.943543
0.944513
0.948926
0.96281
1.00434
1.13256
1.46317
1.80883
1.35796
0.333734
0.369296
0.413644
0.46809
0.53231
0.602888
0.672751
0.732902
0.775182
0.798055
0.803458
0.799958
0.798814
0.814877
0.873488
1.03087
1.37586
1.81712
1.47172
0.280283
0.306724
0.340113
0.381535
0.431048
0.486676
0.54382
0.59594
0.636554
0.66314
0.674973
0.678183
0.684708
0.712032
0.78659
0.955255
1.28973
1.76967
1.59494
0.241599
0.261087
0.285711
0.316423
0.353512
0.395923
0.440782
0.483707
0.520193
0.547826
0.56565
0.578225
0.596192
0.636066
0.72208
0.892437
1.20444
1.68684
1.76502
0.21361
0.228303
0.246612
0.269355
0.296936
0.328877
0.363483
0.398027
0.429726
0.456738
0.478585
0.499066
0.527185
0.57725
0.670184
0.836978
1.12397
1.5845
2.11609
0.19325
0.204868
0.218954
0.236187
0.257007
0.281286
0.308103
0.335866
0.363177
0.388773
0.412827
0.438726
0.474032
0.530815
0.62668
0.786752
1.04884
1.47906
2.41389
0.178332
0.188113
0.199549
0.213196
0.229483
0.248484
0.269776
0.292539
0.316213
0.340167
0.365104
0.394169
0.433769
0.494001
0.5895
0.7406
0.97812
1.37422
2.55493
0.167318
0.176102
0.185996
0.197452
0.210862
0.226409
0.243979
0.263266
0.284126
0.306519
0.331503
0.362032
0.403595
0.464626
0.557174
0.697564
0.910827
1.26883
2.49217
0.159115
0.167452
0.176553
0.186781
0.198484
0.211889
0.22706
0.243993
0.262802
0.283841
0.308382
0.339185
0.380984
0.440805
0.528464
0.656897
0.846443
1.16573
2.34769
0.152922
0.161161
0.16996
0.179607
0.1904
0.202572
0.216274
0.231666
0.249016
0.268914
0.292723
0.322991
0.363792
0.420949
0.502365
0.61818
0.78511
1.06721
2.16764
0.148131
0.156483
0.16529
0.174779
0.185196
0.196751
0.209622
0.22404
0.240361
0.259289
0.282187
0.311366
0.350305
0.403784
0.478093
0.581156
0.72696
0.974675
1.98035
0.144252
0.152834
0.161837
0.171438
0.181827
0.193175
0.205646
0.219482
0.235073
0.253154
0.275023
0.302732
0.339216
0.388346
0.455081
0.545703
0.672181
0.889081
1.80048
0.140881
0.149739
0.159039
0.168913
0.179498
0.19091
0.203272
0.216797
0.231865
0.249188
0.269952
0.295935
0.329571
0.37395
0.432904
0.511766
0.620872
0.810672
1.63376
0.137674
0.146798
0.156428
0.16666
0.177574
0.189227
0.201681
0.215088
0.229788
0.246425
0.266044
0.290145
0.320706
0.360164
0.411537
0.479357
0.573008
0.739224
1.48236
0.134345
0.14367
0.153604
0.164212
0.175525
0.187533
0.200221
0.21366
0.22812
0.244149
0.262627
0.284782
0.312172
0.346699
0.390791
0.448424
0.528476
0.674337
1.34708
0.130672
0.140078
0.150225
0.161161
0.17288
0.185304
0.198335
0.211939
0.226288
0.241812
0.259212
0.279445
0.303693
0.333415
0.370614
0.418874
0.487135
0.615608
1.2287
0.126511
0.135812
0.146007
0.157149
0.169207
0.182055
0.195506
0.209407
0.223801
0.238973
0.255433
0.27387
0.295128
0.320306
0.351115
0.390929
0.449073
0.563359
1.12897
0.121821
0.130764
0.140754
0.151876
0.164111
0.17731
0.191217
0.205558
0.2202
0.235254
0.251008
0.267887
0.286426
0.307452
0.332533
0.365082
0.41478
0.519801
1.0598
0.116693
0.124961
0.134398
0.145151
0.157259
0.170609
0.184931
0.199847
0.215009
0.230302
0.24572
0.261398
0.27762
0.294979
0.315029
0.341368
0.383888
0.482434
1.00191
0.111373
0.118611
0.127067
0.136967
0.148459
0.161553
0.17607
0.191632
0.207666
0.223764
0.239414
0.25432
0.268632
0.282875
0.298516
0.319501
0.356482
0.451122
0.965433
0.106281
0.112146
0.119159
0.127615
0.137795
0.149916
0.164058
0.180084
0.197392
0.215244
0.231973
0.246728
0.259506
0.270875
0.282215
0.297794
0.330349
0.424937
0.937981
0.10199
0.10622
0.111384
0.117795
0.125819
0.135883
0.148467
0.16406
0.182917
0.204435
0.223619
0.238913
0.250465
0.258922
0.265499
0.274404
0.30103
0.401097
0.942102
0.0991924
0.10167
0.104745
0.108657
0.11373
0.120432
0.129522
0.142389
0.161851
0.191477
0.215253
0.231824
0.242406
0.247891
0.249013
0.249174
0.265611
0.371922
0.976927
0.0986486
0.099435
0.100421
0.101696
0.103383
0.105692
0.109077
0.114894
0.128875
0.178725
0.208942
0.227171
0.237238
0.240498
0.237
0.228482
0.232412
0.355726
1.02139
)
;

boundaryField
{
    leftWall
    {
        lowReCorrection 0;
        blending        stepwise;
        n               2;
        type            epsilonWallFunction;
        value           nonuniform List<scalar> 
50
(
0.00946767
0.0153234
0.02284
0.0292904
0.0348972
0.0398374
0.0442003
0.0479964
0.0531656
0.0548649
0.0526141
0.0476331
0.0439451
0.042705
0.0706331
0.111281
0.126361
0.127541
0.122381
0.117304
0.114974
0.116702
0.120522
0.124545
0.127787
0.129777
0.13036
0.129582
0.127609
0.124679
0.121068
0.117062
0.112936
0.108942
0.105291
0.102146
0.0996237
0.0978041
0.0967471
0.0965149
0.0971934
0.0989085
0.101824
0.10611
0.11187
0.119038
0.127254
0.135798
0.143583
0.149104
)
;
    }
    rightWall
    {
        lowReCorrection 0;
        blending        stepwise;
        n               2;
        type            epsilonWallFunction;
        value           nonuniform List<scalar> 
50
(
0.0537761
0.05141
0.0654092
0.080413
0.107271
0.28167
0.622451
0.868846
1.04569
0.964609
0.693582
0.460443
0.462845
0.974158
1.56636
2.3532
3.1753
3.69657
3.75549
3.35995
2.63192
1.78051
1.3386
1.25983
1.2529
1.28542
1.35796
1.47172
1.59494
1.76502
2.11609
2.41389
2.55493
2.49217
2.34769
2.16764
1.98035
1.80048
1.63376
1.48236
1.34708
1.2287
1.12897
1.0598
1.00191
0.965433
0.937981
0.942102
0.976927
1.02139
)
;
    }
    lowerWall
    {
        lowReCorrection 0;
        blending        stepwise;
        n               2;
        type            epsilonWallFunction;
        value           nonuniform List<scalar> 
62
(
0.00946767
0.0246525
0.0394727
0.0532693
0.0659785
0.0779229
0.0894064
0.100534
0.111441
0.122503
0.13451
0.148895
0.168459
0.195401
0.231225
0.276362
0.327846
0.375187
0.396261
0.360409
0.249985
0.116511
0.0308749
0.0308749
0.0457345
0.073435
0.103343
0.137363
0.17692
0.247279
0.414958
0.542099
0.387132
0.464495
0.646518
0.224914
0.255844
0.364585
0.431771
0.478548
0.512563
0.541678
0.577408
0.224914
0.274579
0.394899
0.556504
0.728393
0.906454
1.06907
1.18886
1.35664
1.64904
2.05999
2.23915
1.69039
0.879587
0.393576
0.235797
0.181926
0.132985
0.0537761
)
;
    }
    atmosphere
    {
        type            inletOutlet;
        inletValue      uniform 0.1;
        value           nonuniform List<scalar> 
46
(
0.149104
0.0817279
0.06823
0.0626415
0.0597795
0.0583212
0.0577959
0.0580466
0.0591218
0.061327
0.0654209
0.0730213
0.1
0.1
0.1
0.1
0.1
0.1
0.1
0.1
0.1
0.1
0.1
0.1
0.1
0.1
0.1
0.1
0.1
0.1
0.1
0.1
0.1
0.1
0.1
0.1
0.178725
0.208942
0.227171
0.237238
0.240498
0.237
0.228482
0.232412
0.355726
1.02139
)
;
    }
    defaultFaces
    {
        type            empty;
    }
}


// ************************************************************************* //
