/*--------------------------------*- C++ -*----------------------------------*\
| =========                 |                                                 |
| \\      /  F ield         | OpenFOAM: The Open Source CFD Toolbox           |
|  \\    /   O peration     | Version:  v2012                                 |
|   \\  /    A nd           | Website:  www.openfoam.com                      |
|    \\/     M anipulation  |                                                 |
\*---------------------------------------------------------------------------*/
FoamFile
{
    version     2.0;
    format      ascii;
    class       volScalarField;
    location    "1";
    object      k;
}
// * * * * * * * * * * * * * * * * * * * * * * * * * * * * * * * * * * * * * //

dimensions      [0 2 -2 0 0 0 0];


internalField   nonuniform List<scalar> 
2268
(
0.00206794
0.00320289
0.00439131
0.00536439
0.00618574
0.00690901
0.00756994
0.00818581
0.00877295
0.00935854
0.00998774
0.0107318
0.0117176
0.0129946
0.0145987
0.0164849
0.0185019
0.0202448
0.0209928
0.0197079
0.0154247
0.00926732
0.00381508
0.00385459
0.00723771
0.00973683
0.0116967
0.0132546
0.014547
0.0156798
0.0167241
0.0177483
0.018842
0.0201256
0.0217462
0.0238674
0.0265814
0.030036
0.0342036
0.0386982
0.042591
0.0444389
0.0423418
0.0340811
0.0212443
0.00816661
0.00504461
0.00988495
0.0131238
0.0156056
0.0175439
0.0191253
0.0204917
0.0217463
0.0229925
0.0243615
0.02602
0.0281636
0.0309988
0.0347036
0.0394008
0.0449659
0.0508065
0.0557451
0.0580958
0.0557609
0.0463497
0.0301249
0.011187
0.00596741
0.011953
0.0157525
0.0186083
0.0208091
0.0225841
0.0241063
0.0255089
0.0269293
0.0285408
0.0305595
0.0332343
0.0368224
0.0415213
0.0473926
0.054167
0.0610568
0.0667393
0.0694838
0.0671687
0.0575364
0.039223
0.013998
0.00671796
0.0136707
0.0179359
0.0210922
0.0235016
0.0254324
0.0270887
0.0286348
0.0302451
0.0321388
0.0345852
0.0378882
0.0423415
0.0481119
0.055137
0.0629523
0.0705965
0.0767233
0.0797126
0.077518
0.0679773
0.0489297
0.0168046
0.00734853
0.015135
0.0198003
0.0232139
0.0258063
0.0278816
0.0296749
0.031385
0.0332282
0.0354754
0.038454
0.0425201
0.0479754
0.0548767
0.0629496
0.071507
0.0795005
0.0857149
0.0887277
0.0865887
0.077328
0.0585931
0.019737
0.00788583
0.0163923
0.0214077
0.0250536
0.0278204
0.0300444
0.0319928
0.033904
0.0360449
0.0387475
0.0424012
0.0474031
0.0540106
0.0620396
0.0709098
0.0797536
0.0876092
0.0935448
0.0962983
0.0939616
0.0851138
0.0672463
0.0244634
0.00834097
0.0174674
0.0227937
0.0266593
0.0296041
0.0319929
0.0341275
0.0362946
0.0388265
0.0421296
0.0466541
0.0528145
0.0607349
0.0697799
0.0790028
0.0875188
0.0947256
0.100078
0.102243
0.0992522
0.0908003
0.0749857
0.0341486
0.0136595
0.0156789
0.0200476
0.0253852
0.0305793
0.0355905
0.039643
0.0423676
0.0462507
0.0529387
0.0620962
0.0667601
0.0565572
0.0383207
0.0223771
0.0148857
0.011973
0.00962181
0.00666971
0.0263012
0.0375191
0.0413775
0.0469801
0.0568942
0.0686968
0.077422
0.0833346
0.0899203
0.101954
0.120961
0.132427
0.118359
0.087949
0.0562087
0.0346501
0.0246855
0.018657
0.00914557
0.033385
0.0472496
0.0516256
0.0591804
0.0716707
0.08804
0.100337
0.106658
0.111681
0.123617
0.14879
0.164837
0.153314
0.12412
0.086284
0.0527993
0.0312478
0.0202936
0.0106177
0.0373886
0.0533504
0.0584875
0.0667038
0.0848201
0.110838
0.124126
0.129005
0.13194
0.141243
0.172612
0.189972
0.181706
0.156278
0.118764
0.0772035
0.0428054
0.0223768
0.0121769
0.0400431
0.0575134
0.0637124
0.0757448
0.108332
0.133413
0.144309
0.150008
0.154368
0.167563
0.196312
0.209508
0.206425
0.185229
0.14933
0.105581
0.066434
0.0362385
0.0151301
0.041913
0.0604166
0.0683535
0.0912831
0.124364
0.13571
0.145
0.155918
0.1616
0.183669
0.202274
0.214985
0.219288
0.207258
0.175309
0.132359
0.0974819
0.0705613
0.0300161
0.0434675
0.0627938
0.073566
0.104239
0.12696
0.134726
0.143772
0.156236
0.16645
0.191286
0.204945
0.214746
0.220958
0.216124
0.19509
0.154474
0.123421
0.0964996
0.0500029
0.0453369
0.0654566
0.0801585
0.111433
0.127461
0.133787
0.14306
0.156239
0.172671
0.199512
0.208637
0.213719
0.218635
0.216129
0.202429
0.180467
0.148285
0.112841
0.0622069
0.00894836
0.0188985
0.0246594
0.028863
0.0321071
0.0347953
0.0372913
0.0399814
0.0433351
0.0479016
0.0541999
0.0625197
0.0724565
0.082439
0.0910613
0.0980184
0.103771
0.108056
0.108387
0.103054
0.0943602
0.0824373
0.0629465
0.00915299
0.0196756
0.0259162
0.0305941
0.0343244
0.0375493
0.0407622
0.0446146
0.0499823
0.0578305
0.0686807
0.0817373
0.0945008
0.103689
0.109446
0.113954
0.117261
0.119168
0.109371
0.0990186
0.089203
0.0781964
0.0641896
0.00890506
0.0196444
0.0262989
0.0314895
0.0357849
0.0396641
0.0438391
0.0494734
0.0583247
0.0722857
0.091411
0.111599
0.127366
0.138377
0.143281
0.157834
0.159812
0.14836
0.115205
0.0968826
0.0896722
0.0831667
0.0730865
0.00832831
0.0188337
0.0258395
0.0314978
0.0363711
0.0410321
0.0465945
0.0552325
0.0705529
0.0961446
0.130361
0.163199
0.187984
0.225933
0.269807
0.271938
0.252218
0.210687
0.155381
0.108155
0.0997681
0.0994695
0.0968002
0.00787552
0.0177243
0.0246593
0.0306387
0.0361893
0.0419363
0.0503348
0.0660389
0.0943285
0.13701
0.192203
0.242588
0.272995
0.288287
0.29112
0.287459
0.285904
0.279697
0.221995
0.146004
0.112395
0.111177
0.112437
0.0077139
0.0173258
0.024006
0.0303593
0.0372244
0.0458902
0.0680651
0.119337
0.182778
0.23119
0.260321
0.2668
0.268228
0.270436
0.269584
0.267632
0.270006
0.280785
0.285911
0.228358
0.15874
0.121683
0.120739
0.0100877
0.0179868
0.0257096
0.0371161
0.0612391
0.102823
0.153446
0.201842
0.236123
0.252115
0.257745
0.258539
0.2572
0.254706
0.253228
0.253229
0.256139
0.264535
0.279236
0.282032
0.255374
0.219762
0.157083
0.0148547
0.0297385
0.0408048
0.0548737
0.0783643
0.114774
0.161187
0.206311
0.237561
0.25184
0.257001
0.259294
0.258193
0.255801
0.255146
0.255218
0.255188
0.261476
0.271789
0.281293
0.285464
0.281029
0.268029
0.0165681
0.0352853
0.0466195
0.0603994
0.0819981
0.114411
0.156128
0.198357
0.229419
0.24567
0.255845
0.269266
0.283081
0.292419
0.290149
0.276296
0.265458
0.268548
0.273184
0.281258
0.288227
0.292341
0.295597
0.0167702
0.0360608
0.048525
0.0626372
0.0826922
0.111081
0.147174
0.184893
0.214847
0.232596
0.244556
0.261
0.282626
0.303275
0.316097
0.318365
0.309083
0.284248
0.282152
0.284414
0.289885
0.295359
0.300308
0.016213
0.0343312
0.0472678
0.0613782
0.0798889
0.104698
0.135726
0.169166
0.198022
0.217133
0.229312
0.243224
0.262762
0.285777
0.308061
0.328664
0.344723
0.346521
0.325817
0.294504
0.295411
0.296161
0.301654
0.0155535
0.0319772
0.0444817
0.0579509
0.0747589
0.0963578
0.12302
0.152894
0.180133
0.200147
0.213262
0.22467
0.238838
0.256689
0.277372
0.301115
0.328108
0.351861
0.362647
0.358533
0.333204
0.309812
0.318535
0.01512
0.030194
0.0418614
0.0542573
0.0692578
0.0880903
0.110935
0.136632
0.161611
0.182054
0.196635
0.207482
0.21786
0.229937
0.244762
0.263182
0.285606
0.310541
0.332164
0.346885
0.350659
0.347694
0.345126
0.0150854
0.0293418
0.0402764
0.0515711
0.0648253
0.0809279
0.100165
0.121908
0.14407
0.163882
0.179496
0.191086
0.200291
0.208982
0.218706
0.230643
0.245416
0.262648
0.2812
0.29763
0.310548
0.321581
0.331305
0.0153156
0.0292999
0.039729
0.0500548
0.061722
0.0754686
0.0915871
0.109782
0.128889
0.147092
0.162727
0.175101
0.184627
0.192366
0.19955
0.207299
0.216377
0.227045
0.239376
0.252546
0.265933
0.279977
0.294139
0.0156143
0.029714
0.0398887
0.0494895
0.0598805
0.071726
0.08531
0.100522
0.116731
0.132827
0.147569
0.160087
0.17016
0.178152
0.184775
0.190838
0.197045
0.203877
0.211707
0.221004
0.231674
0.24407
0.257957
0.0158763
0.0302913
0.0403932
0.0495028
0.0589421
0.069333
0.0809535
0.0937939
0.10752
0.121475
0.134828
0.146834
0.157063
0.165477
0.172363
0.178188
0.183463
0.188651
0.194189
0.200662
0.208395
0.217818
0.229107
0.016049
0.0308342
0.0409575
0.0497465
0.0584998
0.0678101
0.0779529
0.0889758
0.100708
0.112767
0.124623
0.135727
0.145657
0.154214
0.161424
0.167492
0.172717
0.177437
0.18201
0.186896
0.192513
0.199321
0.207728
0.0161119
0.0312318
0.0414007
0.0499703
0.0582247
0.0667345
0.0757733
0.0854233
0.0956074
0.106104
0.116581
0.126661
0.136003
0.144375
0.151686
0.157972
0.163368
0.168068
0.172312
0.176416
0.180742
0.18571
0.191799
0.0160638
0.0314361
0.0416302
0.0500277
0.0579015
0.0658045
0.0740078
0.0826156
0.0916069
0.100856
0.110155
0.11925
0.127887
0.135858
0.143032
0.149358
0.154861
0.159624
0.163777
0.167517
0.171119
0.174931
0.179413
0.0159146
0.0314395
0.0416158
0.0498545
0.057417
0.0648411
0.0723941
0.0801946
0.088257
0.0965144
0.104837
0.113054
0.120982
0.128451
0.135327
0.141526
0.147008
0.151782
0.155898
0.159465
0.162684
0.165826
0.169293
0.0156814
0.0312599
0.0413687
0.0494442
0.0567343
0.0637627
0.070792
0.0779493
0.0852723
0.0927321
0.100249
0.107708
0.114976
0.12192
0.12842
0.13438
0.139733
0.144443
0.148511
0.151988
0.155016
0.157803
0.160686
0.0153847
0.0309303
0.0409256
0.0488276
0.0558679
0.0625562
0.0691493
0.0757791
0.0824984
0.0893038
0.0961491
0.102957
0.109632
0.11607
0.122168
0.127833
0.132989
0.13758
0.141576
0.144996
0.147941
0.150571
0.153156
0.0150473
0.0304929
0.0403385
0.0480577
0.0548636
0.0612515
0.0674716
0.0736572
0.0798715
0.0861284
0.0924053
0.0986518
0.104799
0.110765
0.116466
0.121818
0.126743
0.13118
0.135085
0.138464
0.141388
0.143977
0.146448
0.0146919
0.0299946
0.0396666
0.0471986
0.0537834
0.0599017
0.0657964
0.0716005
0.0773836
0.083172
0.0889597
0.0947163
0.100393
0.105927
0.111249
0.116287
0.12097
0.125235
0.129035
0.132384
0.135319
0.137933
0.140402
0.0143407
0.0294817
0.0389693
0.046316
0.0526935
0.0585684
0.0641759
0.0696474
0.0750566
0.0804384
0.0857994
0.091124
0.0963788
0.101518
0.106484
0.111218
0.115658
0.119745
0.12344
0.126757
0.129714
0.132386
0.134912
0.0140132
0.0289969
0.0383014
0.0454711
0.0516566
0.0573116
0.0626639
0.0678428
0.0729242
0.0779494
0.0829341
0.087874
0.0927487
0.0975248
0.102159
0.106602
0.110801
0.114706
0.1183
0.121578
0.124557
0.127295
0.129906
0.013726
0.0285764
0.0377098
0.044716
0.050727
0.0561843
0.0613094
0.0662295
0.0710217
0.0757315
0.0803816
0.0849768
0.0895068
0.0939492
0.0982722
0.102437
0.106402
0.110129
0.113613
0.116843
0.119833
0.122631
0.125329
0.0134915
0.0282491
0.0372324
0.0440937
0.0499492
0.0552306
0.0601539
0.0648443
0.0693798
0.0738091
0.0781602
0.0824445
0.0866604
0.0907947
0.0948257
0.0987246
0.102458
0.106014
0.109379
0.112545
0.115528
0.118368
0.121141
0.0133191
0.0280374
0.0368994
0.0436381
0.0493588
0.0544855
0.0592301
0.0637165
0.0680233
0.0722018
0.0762839
0.0802867
0.0842152
0.0880643
0.0918208
0.0954658
0.0989793
0.102359
0.105592
0.108675
0.111626
0.114482
0.117307
0.0132157
0.0279599
0.0367354
0.0433768
0.0489843
0.0539765
0.0585632
0.0628677
0.0669697
0.0709225
0.0747616
0.0785083
0.0821732
0.0857576
0.0892557
0.092656
0.095959
0.0991563
0.102242
0.105221
0.108112
0.110951
0.113795
0.0131881
0.0280335
0.0367623
0.0433333
0.0488486
0.0537247
0.0581712
0.0623122
0.0662292
0.0699779
0.0735964
0.0771097
0.0805326
0.0838719
0.0871281
0.0902996
0.0933913
0.0963988
0.099323
0.102173
0.104972
0.107756
0.110579
0.0132441
0.0282765
0.0370011
0.0435279
0.0489693
0.0537441
0.0580641
0.0620561
0.0658042
0.069367
0.0727852
0.0760864
0.0792887
0.0824024
0.0854326
0.0883881
0.0912706
0.0940819
0.0968285
0.0995248
0.102197
0.104884
0.107639
0.0133942
0.0287087
0.037471
0.0439759
0.0493567
0.0540396
0.0582418
0.062095
0.0656874
0.0690808
0.0723185
0.07543
0.0784349
0.0813458
0.0841714
0.0869208
0.0895974
0.0922072
0.0947609
0.0972778
0.0997878
0.102333
0.104966
0.0136505
0.0293485
0.0381849
0.0446826
0.0500086
0.0546025
0.0586904
0.0624114
0.0658593
0.0691003
0.0721801
0.0751289
0.0779656
0.0807019
0.0833466
0.0859049
0.088382
0.0907866
0.0931335
0.095446
0.097758
0.100115
0.102571
0.0140239
0.0302049
0.0391413
0.0456362
0.0509041
0.0554048
0.0593774
0.0629706
0.066286
0.0693954
0.0723473
0.075171
0.0778809
0.0804821
0.0829758
0.085363
0.0876491
0.0898459
0.0919726
0.0940571
0.0961367
0.0982594
0.100482
0.0145173
0.0312665
0.0403142
0.0467989
0.0519973
0.0563953
0.0602488
0.0637188
0.0669173
0.0699242
0.0727929
0.0755497
0.0781962
0.0807183
0.083101
0.0853401
0.0874431
0.0894275
0.0913195
0.0931526
0.0949681
0.0968159
0.0987533
0.0151174
0.03249
0.041644
0.0481012
0.0532128
0.0574966
0.0612278
0.0645824
0.0676866
0.0706344
0.0734895
0.0762749
0.0789634
0.0814866
0.0838052
0.0859144
0.0878327
0.0895918
0.0912294
0.0927871
0.09431
0.0958483
0.0974574
0.0157877
0.0337918
0.0430321
0.0494393
0.0544469
0.0586077
0.0622177
0.0654704
0.0685121
0.0714628
0.0744132
0.0773909
0.0803081
0.0829443
0.0852361
0.0872077
0.0889144
0.0904166
0.0917702
0.0930259
0.0942313
0.0954344
0.0966851
0.016466
0.0350462
0.0443421
0.0506789
0.0555725
0.0596104
0.0631084
0.0662792
0.0692972
0.0723298
0.0755342
0.0789894
0.0825124
0.0853906
0.0876304
0.0893886
0.0908075
0.0919925
0.0930191
0.0939435
0.0948113
0.0956639
0.0965419
0.0170679
0.0360891
0.045406
0.0516634
0.0564499
0.0603807
0.0637876
0.0669012
0.0699308
0.0731163
0.0767581
0.0811557
0.086196
0.0893398
0.0913092
0.0926476
0.0936344
0.0944118
0.0950585
0.0956235
0.0961412
0.0966405
0.0971486
0.0174845
0.0367294
0.0460337
0.0522275
0.0569411
0.0608043
0.0641567
0.0672406
0.0702934
0.0736299
0.0777568
0.0835716
0.0928597
0.0955235
0.0965652
0.0971179
0.0974824
0.0977549
0.0979746
0.0981616
0.098329
0.0984872
0.0986463
0.0398877
0.0324563
0.0371935
0.0459992
0.0548514
0.0524954
0.0532044
0.0579244
0.0668621
0.0668094
0.0699439
0.0752126
0.0915311
0.0905315
0.0920471
0.0956285
0.109819
0.10799
0.107066
0.107935
0.119448
0.118417
0.11814
0.119889
0.133496
0.132279
0.135973
0.143563
0.264195
0.265773
0.267141
0.266617
0.297383
0.298352
0.299884
0.300568
0.30206
0.302515
0.302442
0.30181
0.302879
0.300906
0.298856
0.297634
0.319945
0.312795
0.303214
0.299736
0.339478
0.33308
0.326006
0.319842
0.33327
0.33179
0.328297
0.32415
0.302068
0.305971
0.308494
0.310059
0.268039
0.2746
0.280528
0.285833
0.238427
0.245207
0.252002
0.258704
0.215214
0.220991
0.227126
0.233525
0.19744
0.201935
0.206879
0.212225
0.183596
0.186974
0.190763
0.194944
0.17246
0.175011
0.177888
0.181087
0.163204
0.165201
0.167436
0.16991
0.155297
0.156953
0.158775
0.160763
0.1484
0.149866
0.151444
0.153133
0.142285
0.143664
0.145116
0.14664
0.1368
0.138155
0.13956
0.141009
0.131839
0.133208
0.134612
0.136045
0.127325
0.128727
0.130155
0.131606
0.123202
0.124641
0.126105
0.12759
0.119422
0.120894
0.122392
0.123914
0.115944
0.117437
0.11896
0.120511
0.112733
0.114228
0.115758
0.117323
0.109762
0.111234
0.112747
0.114301
0.107016
0.108435
0.109901
0.111414
0.104499
0.105833
0.107216
0.108652
0.10224
0.103453
0.104717
0.106036
0.100293
0.101352
0.102461
0.103624
0.0987384
0.0996176
0.10054
0.101511
0.09768
0.0983598
0.0990742
0.099829
0.0972378
0.0977107
0.0982081
0.0987342
0.0975491
0.0978196
0.0981039
0.0984048
0.0987712
0.0988552
0.0989435
0.099037
0.0522994
0.0719264
0.0916927
0.120243
0.128855
0.134299
0.144059
0.158157
0.182715
0.210067
0.212934
0.212912
0.214336
0.212175
0.202716
0.190083
0.163674
0.123938
0.0711135
0.0655171
0.0844335
0.111828
0.13374
0.134889
0.141533
0.151107
0.165193
0.188113
0.206688
0.211215
0.213167
0.212252
0.208654
0.200139
0.179053
0.147978
0.107984
0.067554
0.0819632
0.106043
0.131776
0.143498
0.147369
0.154867
0.160228
0.170961
0.187006
0.200074
0.206635
0.214706
0.213919
0.208835
0.191546
0.16286
0.128097
0.0873703
0.0556629
0.102008
0.119857
0.139402
0.157309
0.16782
0.168705
0.168717
0.175865
0.187844
0.19877
0.204956
0.219802
0.218654
0.208539
0.178984
0.142556
0.100968
0.0623118
0.0417955
0.111781
0.129492
0.158321
0.176698
0.180083
0.178062
0.176737
0.182731
0.194678
0.205389
0.224489
0.236713
0.22467
0.210538
0.173653
0.133456
0.0860839
0.0539329
0.0391527
0.126199
0.153903
0.181136
0.187555
0.187919
0.186595
0.190598
0.207172
0.217239
0.227195
0.237796
0.24486
0.226048
0.214987
0.182819
0.143635
0.09727
0.0702111
0.0591669
0.163677
0.197952
0.201351
0.199083
0.200299
0.202825
0.211878
0.216739
0.225758
0.237325
0.245753
0.243642
0.230792
0.224454
0.198858
0.165863
0.146166
0.152762
0.0842493
0.26254
0.249907
0.231854
0.222085
0.226164
0.221917
0.218912
0.22405
0.240588
0.251993
0.248141
0.23964
0.235081
0.236971
0.217737
0.197604
0.1932
0.180398
0.109152
0.297449
0.28146
0.264283
0.251244
0.240525
0.22929
0.224343
0.235124
0.260059
0.248647
0.24474
0.238021
0.23595
0.242382
0.229307
0.221678
0.225773
0.226126
0.133842
0.299724
0.291771
0.278995
0.26131
0.246618
0.233887
0.230821
0.24826
0.253558
0.239765
0.238076
0.232424
0.23154
0.238451
0.239461
0.232181
0.25513
0.288624
0.148299
0.296364
0.293577
0.286404
0.270119
0.25426
0.242678
0.256392
0.259242
0.241391
0.233092
0.23054
0.225152
0.225394
0.232143
0.240605
0.249245
0.306144
0.341597
0.150473
0.297851
0.295957
0.292703
0.285857
0.277966
0.273786
0.267942
0.259322
0.246078
0.2365
0.22656
0.221563
0.222628
0.228372
0.238078
0.268182
0.363683
0.359266
0.139085
0.312054
0.3053
0.302841
0.302499
0.30073
0.294543
0.280886
0.266007
0.251896
0.243513
0.240624
0.22626
0.227251
0.232316
0.246214
0.306859
0.395275
0.329036
0.115073
0.318219
0.314402
0.316062
0.320336
0.322214
0.316897
0.300899
0.280791
0.263238
0.25484
0.258526
0.261243
0.252716
0.254464
0.282095
0.337427
0.364242
0.259917
0.086633
0.3118
0.315007
0.32181
0.330245
0.335834
0.33397
0.321959
0.302081
0.282115
0.271785
0.275761
0.287252
0.297258
0.304634
0.312154
0.322779
0.304087
0.208214
0.0793924
0.293821
0.303855
0.315519
0.327541
0.33672
0.339292
0.332876
0.318324
0.300401
0.287486
0.285962
0.293755
0.303733
0.309605
0.306982
0.294497
0.266851
0.187798
0.0780218
0.269656
0.283629
0.298211
0.312856
0.325083
0.331937
0.331188
0.322683
0.308996
0.295521
0.288165
0.288313
0.292125
0.293759
0.288028
0.274337
0.258174
0.191227
0.0786386
0.244542
0.259312
0.274749
0.290234
0.304189
0.314331
0.318324
0.315362
0.306367
0.294354
0.283922
0.277821
0.275374
0.273422
0.269069
0.26363
0.263417
0.211364
0.0811678
0.221755
0.235179
0.249644
0.264526
0.27864
0.290242
0.297393
0.298727
0.294018
0.284872
0.274358
0.265415
0.259416
0.255872
0.254272
0.257312
0.268067
0.241401
0.0854173
0.202558
0.213704
0.226123
0.239317
0.252386
0.263979
0.272475
0.276446
0.275172
0.269363
0.26082
0.252189
0.245734
0.242717
0.244186
0.252757
0.268963
0.256989
0.0910566
0.186964
0.195771
0.205837
0.216851
0.228169
0.238766
0.247333
0.252578
0.253666
0.25083
0.245123
0.238667
0.233881
0.232785
0.237051
0.248518
0.266074
0.262378
0.0970425
0.174449
0.181287
0.189209
0.198066
0.207437
0.216582
0.224487
0.230091
0.232636
0.232117
0.229203
0.225537
0.223312
0.224625
0.23115
0.243911
0.260658
0.261584
0.108345
0.164369
0.169739
0.175955
0.182982
0.190576
0.198226
0.205187
0.210643
0.213998
0.215152
0.21457
0.213537
0.213889
0.217473
0.225676
0.238824
0.253899
0.254783
0.121499
0.156144
0.160514
0.165499
0.171136
0.177301
0.183661
0.18969
0.194789
0.198558
0.200861
0.202064
0.203181
0.20569
0.21109
0.220394
0.233346
0.246295
0.244522
0.126696
0.149308
0.153057
0.157233
0.161905
0.16703
0.172404
0.177669
0.182408
0.186366
0.189432
0.191921
0.194644
0.198763
0.205431
0.215285
0.22758
0.238116
0.232776
0.126512
0.143509
0.146922
0.15062
0.154688
0.159129
0.163826
0.168545
0.17301
0.17705
0.180619
0.183996
0.187835
0.193038
0.200445
0.210353
0.221599
0.229575
0.220653
0.122198
0.138492
0.141767
0.145234
0.148978
0.153027
0.157316
0.161696
0.165989
0.170085
0.173988
0.177953
0.182509
0.188346
0.196037
0.205574
0.215455
0.220839
0.208692
0.116304
0.134071
0.13734
0.140749
0.144375
0.148253
0.152348
0.156563
0.160782
0.164939
0.169068
0.173401
0.178364
0.184474
0.192075
0.200905
0.20921
0.212098
0.197254
0.109782
0.130108
0.133452
0.136916
0.140566
0.144434
0.148495
0.15268
0.156908
0.161138
0.165421
0.16996
0.175096
0.181195
0.188416
0.196291
0.202909
0.20347
0.186459
0.103191
0.126499
0.129958
0.133544
0.137309
0.141274
0.145414
0.149666
0.153966
0.158283
0.162669
0.167296
0.172426
0.178301
0.184925
0.191676
0.19658
0.195032
0.17634
0.0968254
0.123155
0.126739
0.130477
0.134406
0.138534
0.142825
0.147212
0.151628
0.156041
0.160495
0.165124
0.170117
0.175611
0.181482
0.186999
0.190239
0.186821
0.166874
0.0908106
0.120001
0.123694
0.127581
0.131689
0.136011
0.140494
0.145057
0.149619
0.154137
0.158635
0.163206
0.167972
0.172976
0.177999
0.182254
0.183899
0.178852
0.15801
0.0852041
0.116976
0.120735
0.124741
0.129013
0.133529
0.138219
0.14298
0.147709
0.152341
0.156872
0.161352
0.165834
0.170281
0.174404
0.177404
0.177552
0.171111
0.149682
0.0800455
0.114033
0.117793
0.121861
0.126251
0.130933
0.135819
0.140785
0.145695
0.150455
0.155025
0.159404
0.163581
0.167445
0.170656
0.172433
0.171181
0.163576
0.141814
0.0753935
0.111152
0.114825
0.118867
0.123299
0.128087
0.133134
0.138293
0.143397
0.148309
0.152943
0.157243
0.161128
0.164422
0.16675
0.16737
0.164834
0.156235
0.134375
0.0713592
0.108347
0.111823
0.115725
0.120085
0.124882
0.130021
0.135343
0.14065
0.145749
0.150501
0.154778
0.158424
0.161203
0.162721
0.162294
0.158638
0.149183
0.127743
0.068526
0.105672
0.108831
0.11245
0.116589
0.121252
0.126367
0.131786
0.137292
0.142633
0.147597
0.151953
0.155457
0.157824
0.158647
0.15731
0.152701
0.142782
0.12247
0.066122
0.103232
0.105947
0.109128
0.112861
0.117192
0.122102
0.127488
0.133157
0.13881
0.144146
0.148757
0.152256
0.154328
0.154589
0.152477
0.147126
0.137136
0.118056
0.0646289
0.101171
0.103335
0.105925
0.10905
0.1128
0.117233
0.122345
0.128049
0.134089
0.140081
0.145217
0.14891
0.150803
0.150588
0.147798
0.141814
0.131786
0.114095
0.0635205
0.0996726
0.101213
0.103092
0.10542
0.108316
0.111906
0.116326
0.121718
0.128167
0.135401
0.141496
0.1456
0.147422
0.146766
0.143284
0.136579
0.126409
0.110618
0.0637977
0.0989422
0.0998365
0.100945
0.10235
0.104154
0.106498
0.109613
0.113945
0.120446
0.130306
0.138009
0.142734
0.144555
0.143474
0.139252
0.131622
0.121058
0.107922
0.0655249
0.099204
0.0994853
0.0998388
0.100294
0.10089
0.101691
0.102838
0.104772
0.109377
0.125717
0.135548
0.140934
0.142803
0.141417
0.136589
0.128084
0.11708
0.109464
0.0680969
)
;

boundaryField
{
    leftWall
    {
        type            kqRWallFunction;
        value           nonuniform List<scalar> 
50
(
0.00206794
0.00385459
0.00504461
0.00596741
0.00671796
0.00734853
0.00788583
0.00834097
0.00894836
0.00915299
0.00890506
0.00832831
0.00787552
0.0077139
0.0100877
0.0148547
0.0165681
0.0167702
0.016213
0.0155535
0.01512
0.0150854
0.0153156
0.0156143
0.0158763
0.016049
0.0161119
0.0160638
0.0159146
0.0156814
0.0153847
0.0150473
0.0146919
0.0143407
0.0140132
0.013726
0.0134915
0.0133191
0.0132157
0.0131881
0.0132441
0.0133942
0.0136505
0.0140239
0.0145173
0.0151174
0.0157877
0.016466
0.0170679
0.0174845
)
;
    }
    rightWall
    {
        type            kqRWallFunction;
        value           nonuniform List<scalar> 
50
(
0.00666971
0.00914557
0.0106177
0.0121769
0.0151301
0.0300161
0.0500029
0.0622069
0.0711135
0.067554
0.0556629
0.0417955
0.0391527
0.0591669
0.0842493
0.109152
0.133842
0.148299
0.150473
0.139085
0.115073
0.086633
0.0793924
0.0780218
0.0786386
0.0811678
0.0854173
0.0910566
0.0970425
0.108345
0.121499
0.126696
0.126512
0.122198
0.116304
0.109782
0.103191
0.0968254
0.0908106
0.0852041
0.0800455
0.0753935
0.0713592
0.068526
0.066122
0.0646289
0.0635205
0.0637977
0.0655249
0.0680969
)
;
    }
    lowerWall
    {
        type            kqRWallFunction;
        value           nonuniform List<scalar> 
62
(
0.00206794
0.00320289
0.00439131
0.00536439
0.00618574
0.00690901
0.00756994
0.00818581
0.00877295
0.00935854
0.00998774
0.0107318
0.0117176
0.0129946
0.0145987
0.0164849
0.0185019
0.0202448
0.0209928
0.0197079
0.0154247
0.00926732
0.00381508
0.00381508
0.00816661
0.011187
0.013998
0.0168046
0.019737
0.0244634
0.0341486
0.0398877
0.0324563
0.0371935
0.0459992
0.0136595
0.0263012
0.033385
0.0373886
0.0400431
0.041913
0.0434675
0.0453369
0.0136595
0.0156789
0.0200476
0.0253852
0.0305793
0.0355905
0.039643
0.0423676
0.0462507
0.0529387
0.0620962
0.0667601
0.0565572
0.0383207
0.0223771
0.0148857
0.011973
0.00962181
0.00666971
)
;
    }
    atmosphere
    {
        type            inletOutlet;
        inletValue      uniform 0.1;
        value           nonuniform List<scalar> 
46
(
0.0174845
0.0367294
0.0460337
0.0522275
0.0569411
0.0608043
0.0641567
0.0672406
0.0702934
0.0736299
0.0777568
0.0835716
0.1
0.1
0.1
0.1
0.1
0.1
0.1
0.1
0.1
0.1
0.1
0.1
0.1
0.1
0.1
0.1
0.1
0.1
0.1
0.1
0.1
0.1
0.1
0.1
0.125717
0.135548
0.140934
0.142803
0.141417
0.136589
0.128084
0.11708
0.109464
0.0680969
)
;
    }
    defaultFaces
    {
        type            empty;
    }
}


// ************************************************************************* //
