/*--------------------------------*- C++ -*----------------------------------*\
| =========                 |                                                 |
| \\      /  F ield         | OpenFOAM: The Open Source CFD Toolbox           |
|  \\    /   O peration     | Version:  v2012                                 |
|   \\  /    A nd           | Website:  www.openfoam.com                      |
|    \\/     M anipulation  |                                                 |
\*---------------------------------------------------------------------------*/
FoamFile
{
    version     2.0;
    format      ascii;
    class       volScalarField;
    location    "1";
    object      nut;
}
// * * * * * * * * * * * * * * * * * * * * * * * * * * * * * * * * * * * * * //

dimensions      [0 2 -1 0 0 0 0];


internalField   nonuniform List<scalar> 
2268
(
4.06514e-05
3.74512e-05
4.39677e-05
4.86191e-05
5.21943e-05
5.51327e-05
5.76845e-05
5.99862e-05
6.21568e-05
6.43447e-05
6.67455e-05
6.96159e-05
7.33541e-05
7.77751e-05
8.29531e-05
8.84988e-05
9.39736e-05
9.83158e-05
0.000100093
9.69901e-05
8.56564e-05
6.63412e-05
4.24273e-05
8.72655e-05
0.000211229
0.000280372
0.000327956
0.000360825
0.000386256
0.000409077
0.000432148
0.000457557
0.000487292
0.000523175
0.000565961
0.000613216
0.000661294
0.000715937
0.000776344
0.00083563
0.000879564
0.000891095
0.000849669
0.000722832
0.000483473
0.000131245
0.000100277
0.000370784
0.00051348
0.000611499
0.000682853
0.000740448
0.000792406
0.000843499
0.000896855
0.000954606
0.00101745
0.00108418
0.00115132
0.00122033
0.00129666
0.0013788
0.00145469
0.0015025
0.00149562
0.00140327
0.00118308
0.000794302
0.000153378
0.000109418
0.000506173
0.000717834
0.000861557
0.000969148
0.00105727
0.00113572
0.00120984
0.00128236
0.00135391
0.00142317
0.00148826
0.00154924
0.00161315
0.00168705
0.00176823
0.00184078
0.0018785
0.00185078
0.00172427
0.00145966
0.000995462
0.000170645
0.000116393
0.000620874
0.000896239
0.00108091
0.00122103
0.00133615
0.00143667
0.00152753
0.00160994
0.00168249
0.00174299
0.00179225
0.00183713
0.0018904
0.00195933
0.00203728
0.00210341
0.00212836
0.00208067
0.00192893
0.00164025
0.001143
0.000185025
0.000121998
0.000718188
0.00105203
0.00127366
0.00144284
0.00158143
0.00169968
0.00180122
0.00188513
0.00194851
0.00199112
0.00202039
0.00205127
0.00209945
0.00216807
0.00224393
0.00230162
0.00231037
0.00223959
0.00206296
0.00175736
0.00124839
0.000198165
0.000126623
0.000800826
0.00118796
0.00144317
0.00163842
0.00179734
0.00192929
0.00203577
0.00211363
0.00216038
0.00218171
0.00219453
0.0022202
0.00227181
0.00234377
0.00241592
0.00246069
0.00244754
0.00234674
0.00214029
0.00182218
0.00130376
0.000217815
0.000130457
0.000871023
0.00130635
0.00159219
0.001811
0.00198746
0.00212926
0.00223502
0.00229991
0.00232526
0.0023271
0.00233247
0.00236416
0.00242604
0.00250092
0.00256421
0.00259007
0.00254876
0.00240844
0.00216482
0.00184291
0.00134201
0.00025292
7.46615e-05
8.05766e-05
9.15967e-05
0.000104216
0.00011554
0.000125766
0.000132302
0.000135887
0.000141911
0.000152953
0.000168464
0.00017914
0.000170306
0.000150255
0.000114504
8.45748e-05
7.09169e-05
6.26547e-05
7.44504e-05
0.000243342
0.000357369
0.000390614
0.00048329
0.000644752
0.000820292
0.000905556
0.00095401
0.00101293
0.00113474
0.00134924
0.00151271
0.00148536
0.00131327
0.000959531
0.000582575
0.000385873
0.000293121
0.000146425
0.000275136
0.000549971
0.000652726
0.000839937
0.00108643
0.00134428
0.00148353
0.00155169
0.00165386
0.00186405
0.00226752
0.00255024
0.002494
0.00220812
0.00167584
0.00106645
0.000613432
0.000377284
0.000155119
0.000291384
0.000705296
0.00086943
0.00108779
0.00144133
0.00188348
0.00201142
0.00195664
0.00206628
0.00237157
0.00300032
0.00329334
0.00317348
0.00282016
0.00223413
0.0015219
0.000870438
0.0004286
0.000165953
0.00030156
0.000830817
0.00104528
0.00135319
0.00207862
0.00265952
0.00283706
0.00259308
0.00263327
0.00318842
0.00401348
0.0040739
0.0038326
0.00336103
0.00270315
0.00195363
0.00125414
0.000661507
0.000192062
0.000308456
0.000932914
0.00120277
0.00178102
0.00258898
0.00289527
0.00309439
0.0032345
0.00318866
0.00384764
0.0044122
0.00449889
0.00436278
0.00391966
0.00315559
0.0023564
0.00172173
0.00120548
0.000287879
0.000313928
0.001021
0.00137149
0.0021625
0.0027544
0.00300063
0.00322577
0.00347654
0.00357737
0.0042129
0.00460298
0.00471341
0.00464021
0.00433164
0.00374455
0.00282111
0.00217487
0.0016319
0.000361517
0.000320378
0.00110107
0.0015581
0.00238023
0.00283215
0.003082
0.00333243
0.00359534
0.00383042
0.00443667
0.00475178
0.00485334
0.00480509
0.00457548
0.00416948
0.00359124
0.00276494
0.00194063
0.000400846
0.00013555
0.000964533
0.00146793
0.0017979
0.00205034
0.00225022
0.00240084
0.00249544
0.00252989
0.00252035
0.00250508
0.00252026
0.00257671
0.00265535
0.00272331
0.00276155
0.0027532
0.00266258
0.00244285
0.00213444
0.00182574
0.00144701
0.000861407
0.000137428
0.00102353
0.00158673
0.00196243
0.00225185
0.00247581
0.00262709
0.00268968
0.00267333
0.00263943
0.00266019
0.00275142
0.00286742
0.0029537
0.00299827
0.00301832
0.00296716
0.00276473
0.00224322
0.00189599
0.00165167
0.00135698
0.000971749
0.000135648
0.00103653
0.00163895
0.00205192
0.0023727
0.00261242
0.00274626
0.00275176
0.00268591
0.00268759
0.00283253
0.00305457
0.00324227
0.00336886
0.00341824
0.00372943
0.00376915
0.0033032
0.0021953
0.00175564
0.0015929
0.00140118
0.00114168
0.000131053
0.000993723
0.00162631
0.00206888
0.00241421
0.00265852
0.00275438
0.00269349
0.00263014
0.00277728
0.00315598
0.00359046
0.00397245
0.00476319
0.00583877
0.00610337
0.00571574
0.00473945
0.0031798
0.00189964
0.00171856
0.00164687
0.00152955
0.000127025
0.000908158
0.00155085
0.00201927
0.00238436
0.00259476
0.0025906
0.00254469
0.00270459
0.00314019
0.00392256
0.00494808
0.00578803
0.00637999
0.00677164
0.00692441
0.00688027
0.00629692
0.00477518
0.00278445
0.00194977
0.00188665
0.00186067
0.000125404
0.000870941
0.00149949
0.00196956
0.00230367
0.0022879
0.00200591
0.00254438
0.00364832
0.0047869
0.00579711
0.00628762
0.00658467
0.00689256
0.00713756
0.00726628
0.00731857
0.00728478
0.0066779
0.0051474
0.0032392
0.00216492
0.00212912
0.000129663
0.000898163
0.00150759
0.00178827
0.00202665
0.00261072
0.0033918
0.00425708
0.00509043
0.0057845
0.00633773
0.00656019
0.00682974
0.00712684
0.00730992
0.00742348
0.00749748
0.00758222
0.00763318
0.00736487
0.00641843
0.00532534
0.003202
0.000178464
0.0014211
0.0021003
0.00237264
0.00263575
0.00312831
0.00385823
0.00467782
0.00542744
0.00602124
0.0064369
0.00667731
0.00690136
0.0071702
0.00739008
0.00755614
0.00762812
0.00773034
0.0078511
0.00790615
0.00784484
0.00756399
0.00692637
0.000195512
0.0016206
0.00247147
0.00284791
0.00312053
0.00353712
0.00415204
0.00485774
0.0055071
0.00603068
0.00646546
0.00687396
0.00726464
0.00758636
0.00776944
0.00777694
0.00775751
0.00788559
0.00798199
0.00808592
0.00815205
0.00812825
0.0080446
0.000198458
0.00165045
0.00266864
0.00322457
0.00357734
0.00394876
0.00443788
0.00500107
0.00553437
0.00598453
0.00639943
0.00685185
0.00732323
0.00772028
0.00796562
0.00807209
0.00809943
0.00799392
0.00810682
0.00820317
0.00828075
0.0083216
0.00832044
0.00019331
0.00157631
0.00271072
0.00344297
0.0039173
0.00429963
0.00470913
0.00516047
0.00559748
0.00597922
0.00633493
0.00673309
0.00718178
0.00761574
0.00794856
0.00816538
0.00830369
0.00837055
0.00836122
0.00824801
0.00835729
0.00840643
0.00841465
0.000185603
0.00146088
0.00265224
0.00352667
0.00413477
0.0045727
0.00495241
0.00533079
0.00569533
0.00602261
0.00632583
0.00664886
0.00701518
0.00740055
0.00775596
0.00805312
0.00828503
0.00844391
0.00853802
0.00856099
0.00853318
0.0084923
0.00867395
0.000178956
0.00135314
0.00256038
0.00353598
0.00426807
0.00478468
0.00516795
0.00549989
0.00581441
0.00610689
0.00637785
0.006647
0.00693577
0.00724535
0.00755685
0.00784871
0.0081064
0.00831211
0.00847036
0.0086006
0.00873742
0.00892107
0.00915322
0.000175501
0.00127061
0.00248216
0.00352322
0.00435306
0.00495243
0.00537016
0.00568933
0.00597209
0.00623864
0.00649056
0.00673255
0.00697558
0.00722677
0.00748274
0.00773274
0.00796546
0.00817026
0.00833412
0.00849171
0.00868853
0.00895981
0.00927853
0.000175163
0.0012256
0.00243531
0.00351436
0.00441719
0.00510216
0.00558116
0.00591995
0.00619159
0.00643908
0.00667646
0.00690599
0.00713034
0.00735311
0.00757479
0.00779134
0.00799706
0.00818725
0.00835418
0.00851392
0.0087132
0.00898402
0.00931033
0.000176182
0.00121131
0.00242353
0.00352572
0.00447992
0.00524309
0.00580063
0.00619065
0.00647945
0.00672306
0.00695142
0.00717433
0.00739337
0.00760852
0.00781899
0.00802273
0.00821755
0.00840286
0.00857815
0.008741
0.0089269
0.00916317
0.00945073
0.000177522
0.00121618
0.00243893
0.00355861
0.0045476
0.00537403
0.00601297
0.00647707
0.00681382
0.0070786
0.00731212
0.00753521
0.00775475
0.00797115
0.00818255
0.00838668
0.00858217
0.00876962
0.00895039
0.00911923
0.00929296
0.00949123
0.00972364
0.000178624
0.00123068
0.00247031
0.00360631
0.00461911
0.00549162
0.00620157
0.0067464
0.00715298
0.00746525
0.00772516
0.00796124
0.00818774
0.00840912
0.00862485
0.00883277
0.00903126
0.00922037
0.0094009
0.00956885
0.00972945
0.00989561
0.0100778
0.000179222
0.00124845
0.00250774
0.00365969
0.00468952
0.00559305
0.00635686
0.00697383
0.00745583
0.00783209
0.00813776
0.00840257
0.00864574
0.00887657
0.00909768
0.00930837
0.00950723
0.00969362
0.00986748
0.010026
0.0101693
0.0103069
0.0104478
0.000179222
0.00126566
0.00254399
0.00371054
0.0047528
0.00567596
0.00647622
0.0071485
0.00769712
0.00813922
0.00850011
0.00880536
0.00907495
0.00932123
0.00955
0.00976284
0.00995943
0.0101392
0.0103017
0.0104452
0.0105684
0.0106793
0.0107858
0.00017863
0.00128012
0.0025744
0.00375281
0.00480372
0.00573832
0.00656069
0.00727029
0.00786937
0.00836761
0.00878157
0.00913052
0.00943189
0.00969847
0.00993796
0.010154
0.0103477
0.0105194
0.010669
0.0107955
0.0108984
0.0109848
0.0110623
0.000177507
0.00129069
0.00259631
0.00378278
0.00483872
0.00577882
0.00661271
0.00734438
0.00797685
0.00851626
0.00897315
0.00936096
0.00969325
0.00998135
0.0102333
0.0104538
0.0106456
0.0108097
0.0109469
0.0110574
0.0111418
0.0112069
0.0112603
0.000175951
0.001297
0.00260871
0.0037988
0.00485616
0.00579725
0.00663519
0.00737751
0.00802887
0.0085943
0.00908093
0.00949792
0.00985519
0.0101619
0.0104252
0.0106504
0.0108406
0.0109981
0.0111244
0.0112208
0.0112892
0.0113366
0.0113703
0.000174078
0.00129934
0.00261184
0.00380102
0.00485624
0.00579474
0.00663155
0.00737648
0.0080358
0.00861454
0.00911819
0.00955326
0.00992695
0.0102463
0.0105174
0.0107451
0.010933
0.011084
0.0112004
0.0112843
0.0113391
0.0113718
0.0113898
0.000172015
0.00129851
0.00260704
0.00379103
0.00484079
0.00577376
0.00660576
0.00734787
0.00800747
0.00858993
0.00910007
0.00954297
0.00992404
0.0102487
0.0105222
0.0107487
0.010932
0.0110753
0.0111817
0.0112538
0.0112966
0.011317
0.0113222
0.000169897
0.00129565
0.00259637
0.0037715
0.00481288
0.00573792
0.00656251
0.00729821
0.00795293
0.00853234
0.00904103
0.00948337
0.00986376
0.0101867
0.0104564
0.0106771
0.0108524
0.0109857
0.0110807
0.0111411
0.0111727
0.0111821
0.0111767
0.000167853
0.00129208
0.00258235
0.00374584
0.00477655
0.00569179
0.00650717
0.00723412
0.00788064
0.00845247
0.00895414
0.00938963
0.00976288
0.0100778
0.0103384
0.0105485
0.010712
0.0108326
0.0109145
0.0109626
0.0109828
0.010982
0.0109674
0.000166
0.00128911
0.00256767
0.00371784
0.00473636
0.00564057
0.00644556
0.00716233
0.00779863
0.00836006
0.00885102
0.00927535
0.00963676
0.009939
0.0101859
0.0103815
0.0105298
0.0106351
0.0107023
0.0107371
0.0107455
0.0107345
0.0107114
0.000164438
0.00128792
0.00255497
0.00369138
0.00469712
0.00558972
0.00638373
0.00708955
0.00771449
0.00826388
0.00874193
0.00915241
0.00949895
0.00978534
0.0100156
0.0101938
0.0103244
0.0104127
0.0104641
0.0104845
0.0104805
0.0104592
0.0104278
0.000163243
0.00128953
0.00254673
0.00367021
0.00466349
0.00554455
0.00632746
0.00702204
0.00763509
0.00817161
0.00863565
0.00903088
0.00936099
0.00962988
0.00984177
0.0100012
0.0101132
0.0101836
0.0102184
0.0102239
0.010207
0.010175
0.0101352
0.000162475
0.00129485
0.00254517
0.00365767
0.00463965
0.00550976
0.0062818
0.00696512
0.00756612
0.00808951
0.00853918
0.00891877
0.00923206
0.00948312
0.00967647
0.00981703
0.00991066
0.00996336
0.00998155
0.00997208
0.00994215
0.00989919
0.00985052
0.000162186
0.00130465
0.00255215
0.00365648
0.00462888
0.00548895
0.00625052
0.0069227
0.00751166
0.00802195
0.00845739
0.00882166
0.00911866
0.00935267
0.00952849
0.00965151
0.00972791
0.00976401
0.0097666
0.00974283
0.00970013
0.00964608
0.00958806
0.000162425
0.00131955
0.00256894
0.00366835
0.00463311
0.00548414
0.00623565
0.00689681
0.00747379
0.00797116
0.00839281
0.00874255
0.00902443
0.00924295
0.00940312
0.00951082
0.00957219
0.00959382
0.00958267
0.00954606
0.00949154
0.00942671
0.00935894
0.000163245
0.00133986
0.00259586
0.0036935
0.00465245
0.00549535
0.00623715
0.00688737
0.00745243
0.00793713
0.00834561
0.00868188
0.00895021
0.00915531
0.00930243
0.00939755
0.00944687
0.009457
0.00943491
0.00938787
0.00932331
0.00924872
0.00917134
0.000164699
0.0013652
0.00263173
0.00373016
0.00468483
0.00552041
0.00625283
0.00689222
0.00744551
0.00791792
0.00831396
0.00863797
0.00889445
0.00908832
0.00922514
0.00931084
0.00935162
0.00935395
0.00932458
0.00927048
0.00919875
0.0091165
0.00903067
0.000166812
0.00139418
0.00267348
0.00377441
0.00472606
0.00555517
0.00627874
0.00690768
0.00744959
0.00791032
0.00829486
0.00860789
0.00885415
0.00903878
0.00916773
0.00924705
0.00928289
0.00928147
0.0092491
0.00919223
0.00911736
0.00903099
0.00893942
0.000169551
0.00142418
0.00271619
0.0038205
0.00477038
0.00559421
0.00630992
0.00692926
0.00746068
0.0079108
0.00828515
0.0085886
0.00882592
0.0090026
0.00912528
0.00920051
0.00923452
0.00923319
0.00920229
0.00914755
0.00907466
0.00898919
0.00889653
0.000172788
0.00145173
0.0027541
0.00386208
0.00481166
0.00563192
0.00634137
0.00695263
0.00747517
0.00791651
0.00828261
0.00857809
0.00880722
0.00897602
0.00909255
0.00916457
0.00919864
0.00920036
0.00917489
0.00912714
0.00906183
0.00898345
0.00889618
0.000176281
0.00147328
0.00278199
0.00389374
0.00484479
0.00566363
0.00636897
0.00697431
0.00749035
0.00792566
0.00828639
0.00857594
0.00879706
0.00895646
0.00906503
0.00913273
0.00916692
0.00917303
0.00915561
0.00911874
0.00906615
0.00900118
0.00892675
0.00017969
0.00148603
0.00279684
0.00391259
0.00486689
0.00568651
0.00639005
0.00699196
0.00750438
0.0079371
0.00829598
0.00858213
0.0087956
0.00894308
0.00903999
0.00910007
0.00913217
0.00914182
0.00913298
0.00910892
0.00907245
0.00902584
0.00897087
0.000182601
0.00148889
0.00279925
0.00391936
0.00487807
0.00569995
0.00640349
0.00700415
0.00751557
0.00794863
0.00830866
0.00859471
0.00880715
0.00894005
0.00901865
0.00906484
0.00909007
0.00909994
0.00909774
0.00908583
0.00906604
0.00903975
0.00900787
0.000184527
0.0014856
0.00279524
0.00391904
0.00488137
0.00570538
0.00640958
0.00701018
0.00752183
0.00795607
0.00831768
0.00860816
0.00886831
0.00896755
0.00900869
0.00902911
0.0090399
0.00904473
0.0090452
0.00904227
0.00903663
0.00902877
0.00901898
0.000264145
0.000244896
0.000268037
0.000294553
0.000675574
0.000604059
0.000597419
0.000660728
0.000964633
0.000937224
0.000975693
0.00106845
0.00141373
0.00140216
0.00145145
0.00155777
0.00181622
0.00181243
0.00185011
0.00193753
0.00211226
0.00212738
0.0021762
0.00227801
0.0025025
0.00249514
0.00263025
0.00286601
0.00657632
0.00649678
0.00640777
0.00628761
0.00793646
0.00786783
0.00780925
0.00772657
0.00827052
0.00823787
0.0082048
0.00815463
0.00836002
0.00835437
0.00834362
0.00831639
0.00871594
0.00860473
0.00845446
0.00840491
0.0092597
0.00928873
0.009299
0.00931145
0.0094777
0.00958505
0.009675
0.00975274
0.00954823
0.0096989
0.00984074
0.00997223
0.009681
0.00983621
0.00999002
0.0101391
0.00991665
0.0100493
0.0101844
0.0103189
0.0102271
0.010328
0.0104308
0.0105334
0.0105585
0.0106301
0.0107011
0.0107701
0.0108652
0.0109136
0.0109592
0.0110007
0.0111169
0.0111476
0.0111743
0.0111958
0.0112951
0.0113121
0.0113248
0.0113322
0.0113895
0.0113958
0.011398
0.0113952
0.0113966
0.0113947
0.0113887
0.0113783
0.0113193
0.0113108
0.0112987
0.0112826
0.0111661
0.0111525
0.0111357
0.0111155
0.0109505
0.010933
0.0109127
0.0108897
0.0106892
0.0106686
0.0106459
0.0106212
0.0104008
0.0103777
0.0103532
0.0103275
0.0101034
0.010078
0.010052
0.0100256
0.00981368
0.00978587
0.00975818
0.00973096
0.00954547
0.00951481
0.00948496
0.00945633
0.00930985
0.00927576
0.009243
0.00921204
0.00911519
0.00907714
0.00904071
0.00900639
0.00896755
0.00892538
0.00888478
0.0088463
0.00887063
0.00882492
0.00878038
0.00873758
0.00882506
0.0087775
0.00873041
0.00868431
0.0088269
0.0087805
0.00873371
0.00868695
0.00886589
0.00882476
0.00878248
0.00873933
0.00892466
0.00889309
0.00886004
0.00882562
0.0089804
0.00896145
0.00894127
0.00891988
0.00901039
0.00900441
0.00899796
0.00899103
0.000545675
0.00126075
0.00183889
0.00258874
0.00292996
0.00317945
0.00345706
0.00374145
0.00413684
0.00469877
0.00490782
0.0049604
0.00491837
0.00477401
0.0044925
0.00412625
0.00331456
0.00221204
0.000435254
0.000875024
0.00150069
0.00219163
0.00280497
0.00307493
0.00336269
0.00365589
0.0039539
0.0043724
0.00475488
0.00493852
0.00498335
0.00490467
0.00480648
0.00450982
0.00384023
0.0029327
0.00189633
0.000425788
0.00123601
0.00193442
0.00260343
0.00302179
0.00330695
0.00364676
0.00385227
0.00409418
0.00442954
0.00472817
0.00489306
0.00493774
0.00478959
0.00464481
0.00414404
0.00329529
0.00240343
0.00150831
0.000402046
0.00176134
0.00232182
0.00284119
0.00331767
0.00374932
0.00393213
0.00400117
0.00417258
0.00445353
0.00471142
0.00484183
0.00482291
0.00461179
0.00425723
0.00359094
0.00268492
0.00178311
0.000964958
0.000341449
0.00210639
0.00260082
0.00331194
0.00384514
0.0040746
0.00412241
0.0041277
0.00432048
0.00478994
0.00498522
0.0050732
0.00468761
0.00430789
0.00389932
0.00317398
0.00230735
0.00138651
0.000700615
0.000298078
0.00249643
0.00325713
0.00400014
0.00423717
0.00432828
0.00435544
0.00469611
0.00558722
0.00598143
0.00589321
0.00539706
0.00460343
0.00394716
0.00366909
0.0030406
0.00225495
0.00142694
0.000654175
0.000323423
0.0034583
0.00445359
0.00462769
0.00464822
0.00477451
0.00518085
0.00595323
0.00625843
0.00629761
0.00611154
0.0055297
0.00440015
0.00393207
0.00361267
0.00304361
0.00230895
0.00146125
0.00108939
0.000407834
0.00615687
0.00588645
0.00551934
0.00551771
0.00608237
0.00634052
0.00650792
0.00655544
0.00644889
0.00606994
0.00522751
0.0044599
0.00407181
0.00373369
0.00316935
0.00242196
0.00171984
0.00130085
0.000455663
0.00752871
0.00711073
0.00678135
0.00677198
0.00684743
0.00682224
0.00677161
0.00671192
0.00640795
0.00538993
0.00481879
0.00456068
0.00429127
0.00396862
0.00330615
0.00238394
0.00208106
0.00161836
0.000507739
0.00804383
0.00777106
0.00745708
0.00723421
0.0071575
0.00702701
0.00684674
0.00649732
0.00561858
0.00491869
0.00475079
0.00455741
0.00435775
0.00417741
0.00384794
0.00260204
0.00239658
0.00212586
0.000535454
0.0082559
0.00808495
0.00784147
0.00756994
0.00734185
0.00703675
0.00669575
0.00605865
0.00521261
0.00479191
0.00464607
0.00446058
0.00428652
0.00414231
0.00392863
0.00300125
0.00278661
0.00253173
0.000542618
0.00839172
0.00850155
0.00854204
0.00830161
0.00785205
0.00729329
0.00668389
0.00606107
0.00541271
0.00489896
0.00448904
0.00433165
0.00418995
0.00407118
0.00392164
0.00327608
0.00316607
0.00267523
0.000518171
0.00932273
0.00931855
0.00920606
0.00888076
0.0083407
0.00763379
0.00685727
0.00618969
0.00558213
0.00506054
0.0046104
0.0042404
0.00408511
0.0039753
0.00380326
0.00335222
0.00335861
0.002514
0.000452811
0.00985273
0.00990327
0.00978996
0.00945386
0.0089017
0.00816855
0.00730231
0.00650771
0.00581618
0.00519969
0.00475672
0.0044363
0.00410336
0.0038286
0.00366259
0.00357358
0.00332631
0.00213206
0.000379372
0.0101688
0.0103172
0.010264
0.00996918
0.00945138
0.00875376
0.00792474
0.00705236
0.00623482
0.00554201
0.00505436
0.00475428
0.00452326
0.00430129
0.00405359
0.00376853
0.00319736
0.00190784
0.000423787
0.0103725
0.0105872
0.0106007
0.0103673
0.00990774
0.00927053
0.00850601
0.00767299
0.00684369
0.00611335
0.00557548
0.00524627
0.00503421
0.0048119
0.00449339
0.00402267
0.00323122
0.00187377
0.000434873
0.0105367
0.0107573
0.0108137
0.0106415
0.0102489
0.00968382
0.00899628
0.00823274
0.00745032
0.00672618
0.00614245
0.0057512
0.00550086
0.0052682
0.00493432
0.0044111
0.00354122
0.00200874
0.000444219
0.0107026
0.0108841
0.0109412
0.0108155
0.0104931
0.00999701
0.00938863
0.00870162
0.00798221
0.00728804
0.00668614
0.00624191
0.00594526
0.00570009
0.00537929
0.00486853
0.0040064
0.00234726
0.00046128
0.0108827
0.0110051
0.0110355
0.0109248
0.010653
0.0102322
0.00969812
0.00908177
0.0084253
0.00777077
0.00717988
0.00671252
0.00638269
0.00611993
0.00579373
0.00526141
0.00442013
0.00289951
0.000483555
0.0110648
0.01113
0.0111251
0.0110119
0.0107698
0.0104026
0.00993212
0.00938464
0.00879119
0.00818248
0.00762009
0.00715528
0.0068034
0.00650653
0.00614364
0.00557757
0.00473207
0.00327106
0.000507039
0.0112244
0.0112458
0.0112116
0.0110925
0.01087
0.0105426
0.010124
0.00963455
0.00909771
0.00853877
0.00801169
0.00755931
0.00718999
0.00684943
0.0064295
0.00581886
0.00494023
0.00350111
0.000531402
0.0113366
0.0113291
0.0112772
0.0111582
0.010955
0.0106629
0.0102897
0.00985055
0.00936335
0.00885147
0.00835865
0.00791738
0.00752802
0.00713932
0.00665955
0.00599965
0.00507694
0.00365083
0.000598568
0.0113831
0.0113579
0.0112987
0.0111875
0.0110082
0.0107531
0.0104246
0.0100328
0.00959112
0.00912153
0.00865806
0.008223
0.0078101
0.00737375
0.00683941
0.00613317
0.0051619
0.00368715
0.000627845
0.0113546
0.0113186
0.0112586
0.0111601
0.0110083
0.0107926
0.0105107
0.0101673
0.00977012
0.0093398
0.00890125
0.00846866
0.00803268
0.00755497
0.00697583
0.0062288
0.00520529
0.00363823
0.00059848
0.0112506
0.0112081
0.0111501
0.0110658
0.0109416
0.0107656
0.0105309
0.0102364
0.0098854
0.00949413
0.0090797
0.00865053
0.00819705
0.00768855
0.00707599
0.00629403
0.00521708
0.00354865
0.000563803
0.0110779
0.0110319
0.0109775
0.0109067
0.010808
0.0106688
0.010479
0.0102327
0.00992944
0.00957876
0.00919115
0.00877095
0.00830964
0.00778271
0.00714741
0.00633568
0.00520781
0.00345349
0.000539253
0.0108488
0.0108019
0.0107523
0.0106944
0.0106183
0.0105119
0.0103633
0.010163
0.0099071
0.00959855
0.00924195
0.00883841
0.00838013
0.00784644
0.00719718
0.00636001
0.00518558
0.00336248
0.000518547
0.0105789
0.0105335
0.0104902
0.0104448
0.0103892
0.0103118
0.0102003
0.0100428
0.00983243
0.00956648
0.00924459
0.00886477
0.00841896
0.00788776
0.00723111
0.00637226
0.00515687
0.0032813
0.000500401
0.0102851
0.010243
0.0102072
0.0101745
0.0101379
0.0100867
0.0100085
0.00989027
0.00972244
0.00949821
0.009213
0.0088618
0.00843508
0.00791277
0.00725325
0.00637606
0.00512548
0.00321033
0.00048393
0.00998373
0.00994557
0.00991778
0.00989767
0.00987887
0.00985153
0.00980323
0.00972063
0.00959195
0.00940737
0.00915895
0.00883869
0.00843483
0.00792524
0.00726591
0.00637333
0.00509291
0.00314775
0.000468634
0.0096893
0.00965451
0.00963396
0.00962528
0.00962263
0.00961664
0.00959513
0.00954439
0.00945112
0.00930328
0.00909023
0.00880119
0.00842167
0.00792679
0.00726993
0.00636461
0.00505934
0.00309156
0.000454284
0.00941376
0.00938037
0.00936481
0.00936509
0.00937581
0.00938804
0.00938979
0.00936703
0.00930527
0.00919081
0.00901081
0.00875189
0.0083967
0.00791731
0.00726423
0.00634951
0.0050242
0.00303975
0.000440766
0.00916676
0.00913148
0.00911716
0.00912236
0.00914229
0.00916853
0.00918932
0.00919034
0.00915609
0.00907147
0.00892173
0.00869114
0.00835952
0.0078959
0.00724809
0.00632706
0.00498624
0.00299021
0.000428077
0.00895622
0.00891484
0.00889672
0.0089013
0.00892474
0.00895942
0.00899399
0.00901407
0.00900312
0.00894475
0.00882239
0.00861808
0.00830902
0.00786136
0.0072204
0.00629607
0.00494345
0.0029402
0.000416357
0.00878925
0.00873728
0.00870949
0.00870665
0.00872635
0.0087623
0.00880407
0.00883756
0.00884533
0.00880955
0.00871178
0.00853177
0.00824427
0.00781288
0.00718042
0.00625517
0.00489195
0.00288467
0.000405938
0.00867263
0.00860635
0.00856315
0.00854541
0.00855277
0.00858103
0.00862157
0.00866132
0.00868237
0.00866536
0.00858954
0.0084321
0.0081654
0.00775092
0.00712873
0.0062039
0.00482906
0.00282542
0.000398775
0.00861233
0.00853041
0.00846772
0.00842822
0.00841398
0.00842383
0.0084522
0.00848854
0.00851582
0.00851329
0.00845703
0.00832076
0.0080749
0.00767913
0.0070698
0.00614758
0.00477955
0.0027981
0.00039274
0.00861166
0.0085171
0.00843487
0.00836974
0.00832589
0.00830564
0.00830794
0.00832722
0.00835061
0.00835712
0.00831853
0.00820372
0.00797949
0.00760334
0.00700944
0.00609746
0.00474797
0.0027805
0.000389381
0.00866765
0.00856947
0.00847452
0.00838669
0.00831055
0.00825079
0.00821134
0.00819445
0.0081978
0.00820478
0.00818166
0.00808853
0.00788703
0.00753453
0.00696626
0.00607804
0.00473162
0.00275709
0.000387148
0.00876674
0.00867974
0.00858756
0.00849112
0.00839233
0.00829442
0.00820288
0.00812734
0.00808238
0.00807103
0.00805793
0.00798595
0.00780947
0.00748724
0.00695946
0.00611811
0.00477736
0.00274565
0.000388826
0.00888233
0.00882323
0.00875548
0.0086768
0.00858455
0.00847584
0.00834882
0.00820647
0.00806692
0.00798097
0.00796363
0.00790929
0.00775827
0.00747356
0.00700845
0.00625744
0.0049657
0.00281844
0.000395542
0.00897863
0.00895821
0.00893336
0.00890205
0.00886118
0.00880565
0.00872598
0.00859872
0.00835471
0.00795878
0.00791417
0.007869
0.00773632
0.00748399
0.00708476
0.00646219
0.00530822
0.0030316
0.000408607
)
;

boundaryField
{
    leftWall
    {
        type            nutkWallFunction;
        blending        stepwise;
        Cmu             0.09;
        kappa           0.41;
        E               9.8;
        value           nonuniform List<scalar> 
50
(
7.82485e-06
1.05584e-05
1.19945e-05
1.29824e-05
1.37249e-05
1.43139e-05
1.47941e-05
1.51868e-05
1.56929e-05
1.58591e-05
1.56574e-05
1.5176e-05
1.47863e-05
1.46931e-05
1.45462e-05
1.66022e-05
1.75369e-05
1.76175e-05
1.71555e-05
1.66111e-05
1.62473e-05
1.6218e-05
1.64118e-05
1.6661e-05
1.68772e-05
1.70187e-05
1.70701e-05
1.70308e-05
1.69087e-05
1.67165e-05
1.64698e-05
1.61857e-05
1.58826e-05
1.55789e-05
1.52919e-05
1.5037e-05
1.48266e-05
1.46706e-05
1.45765e-05
1.45513e-05
1.46024e-05
1.47387e-05
1.49695e-05
1.53013e-05
1.57321e-05
1.6245e-05
1.68043e-05
1.73568e-05
1.78363e-05
1.81625e-05
)
;
    }
    rightWall
    {
        type            nutkWallFunction;
        blending        stepwise;
        Cmu             0.09;
        kappa           0.41;
        E               9.8;
        value           nonuniform List<scalar> 
50
(
1.50954e-05
1.74845e-05
1.8737e-05
1.9964e-05
2.21383e-05
3.07507e-05
3.88667e-05
4.294e-05
4.56458e-05
4.45881e-05
4.08081e-05
3.55588e-05
3.47895e-05
4.49786e-05
5.50517e-05
6.28514e-05
6.99011e-05
7.36933e-05
7.42484e-05
7.13277e-05
6.47789e-05
5.59029e-05
5.24053e-05
5.19795e-05
5.217e-05
5.29587e-05
5.42681e-05
5.59187e-05
5.88382e-05
6.30783e-05
6.64682e-05
6.7933e-05
6.78819e-05
6.66673e-05
6.49684e-05
6.30314e-05
6.10068e-05
5.89815e-05
5.69978e-05
5.50811e-05
5.32539e-05
5.15488e-05
5.01305e-05
4.91811e-05
4.81987e-05
4.7544e-05
4.7057e-05
4.71426e-05
4.78441e-05
4.88571e-05
)
;
    }
    lowerWall
    {
        type            nutkWallFunction;
        blending        stepwise;
        Cmu             0.09;
        kappa           0.41;
        E               9.8;
        value           nonuniform List<scalar> 
62
(
3.64446e-06
4.59459e-06
5.40256e-06
5.97635e-06
6.41671e-06
6.77813e-06
7.09034e-06
7.36784e-06
7.62175e-06
7.86571e-06
8.11854e-06
8.40633e-06
8.77099e-06
9.21885e-06
9.74813e-06
1.03305e-05
1.09137e-05
1.13897e-05
1.1587e-05
1.12456e-05
1.0008e-05
7.82835e-06
5.02853e-06
5.02853e-06
1.50378e-05
1.741e-05
1.93155e-05
2.10169e-05
2.26342e-05
2.49831e-05
2.91134e-05
3.14128e-05
2.85832e-05
3.04209e-05
3.35248e-05
9.44637e-06
2.84594e-05
3.17309e-05
3.3416e-05
3.44801e-05
3.52066e-05
3.57971e-05
3.64921e-05
9.44637e-06
1.00879e-05
1.13368e-05
1.26736e-05
1.38317e-05
1.48498e-05
1.56162e-05
1.61073e-05
1.67779e-05
1.78633e-05
1.92335e-05
1.98889e-05
1.842e-05
1.53717e-05
1.19426e-05
9.83971e-06
8.86304e-06
7.97286e-06
6.66104e-06
)
;
    }
    atmosphere
    {
        type            calculated;
        value           nonuniform List<scalar> 
46
(
0.000184527
0.0014856
0.00279524
0.00391904
0.00488137
0.00570538
0.00640958
0.00701018
0.00752183
0.00795607
0.00831768
0.00860816
0.009
0.009
0.009
0.009
0.009
0.009
0.009
0.009
0.009
0.009
0.009
0.009
0.009
0.009
0.009
0.009
0.009
0.009
0.009
0.009
0.009
0.009
0.009
0.009
0.00795878
0.00791417
0.007869
0.00773632
0.00748399
0.00708476
0.00646219
0.00530822
0.0030316
0.000408607
)
;
    }
    defaultFaces
    {
        type            empty;
    }
}


// ************************************************************************* //
