/*--------------------------------*- C++ -*----------------------------------*\
| =========                 |                                                 |
| \\      /  F ield         | OpenFOAM: The Open Source CFD Toolbox           |
|  \\    /   O peration     | Version:  v2012                                 |
|   \\  /    A nd           | Website:  www.openfoam.com                      |
|    \\/     M anipulation  |                                                 |
\*---------------------------------------------------------------------------*/
FoamFile
{
    version     2.0;
    format      ascii;
    class       volScalarField;
    location    "1";
    object      p;
}
// * * * * * * * * * * * * * * * * * * * * * * * * * * * * * * * * * * * * * //

dimensions      [1 -1 -2 0 0 0 0];


internalField   nonuniform List<scalar> 
2268
(
1028.76
1023.87
1016.82
1007.24
995.466
981.438
965.139
946.593
925.897
903.236
878.9
853.389
827.636
802.986
781.408
764.577
753.454
747.312
742.983
736.463
726.473
719.234
719.427
971.156
966.261
959.234
949.767
938.122
924.145
907.799
889.109
868.165
845.133
820.313
794.223
767.837
742.517
720.207
702.188
689.695
682.418
677.887
672.392
664.217
659.221
660.207
913.759
908.696
901.786
892.548
881.083
867.202
850.866
832.089
810.933
787.519
762.111
735.269
707.826
681.268
657.405
637.831
623.939
615.931
612.015
608.412
602.072
598.186
599.573
856.637
851.223
844.399
835.395
824.104
810.339
794.057
775.25
753.931
730.154
704.117
676.332
647.676
619.596
593.964
572.67
557.617
549.659
547.492
546.509
541.135
536.647
537.981
799.683
793.937
787.144
778.328
767.194
753.559
737.373
718.601
697.195
673.11
646.436
617.593
587.457
557.507
529.765
506.484
490.28
482.826
483.385
486.058
481.463
475.332
476.464
742.801
736.833
730.054
721.396
710.412
696.925
680.883
662.223
640.825
616.515
589.203
559.156
527.217
494.947
464.588
438.812
421.216
414.495
418.777
426.716
423.366
415.023
415.891
685.945
679.885
673.136
664.624
653.795
640.478
624.63
606.175
584.907
560.48
532.541
501.125
467.018
431.889
398.233
369.171
349.527
343.363
352.82
368.782
367.312
356.602
356.743
629.109
623.09
616.378
607.998
597.319
584.184
568.575
550.41
529.402
504.998
476.487
443.565
406.886
368.186
330.249
296.311
272.198
264.801
282.163
311.867
312.317
298.681
297.56
754.992
743.926
711.234
650.452
602.589
582.285
568.905
543.429
513.825
503.523
531.242
569.693
576.773
555.172
514.692
466.276
415.93
370.052
350.402
716.58
697.527
656.057
585.165
533.457
516.52
507.893
482.636
449.043
428.122
448.016
486.636
501.275
490.716
460.346
414.428
362.255
311.539
290.055
675.666
644.711
591.155
511.783
465.773
463.162
459.153
427.773
386.784
359.349
377.588
412.526
428.576
426.042
405.907
362.898
307.414
248.526
224.338
627.263
585.912
519.516
441.76
424.301
435.167
434.153
398.104
351.306
326.797
347.54
376.099
382.919
369.896
349.779
306.847
245.621
178.383
153.658
573.584
524.633
450.7
395.052
404.302
417.84
418.557
386.826
339.691
317.863
337.951
359.76
359.67
329.955
293.682
241.869
175.488
120.393
107.26
514.015
463.875
391.809
366.993
381.718
378.348
377.525
369.895
328.381
307.934
312.166
321.585
322.121
292.026
239.528
171.791
115.074
95.0911
95.407
449.187
405.443
342.494
339.38
346.487
337.308
336.937
336.511
312.556
293.99
282.842
279.136
272.091
238.912
192.681
120.84
85.2061
85.1148
89.7839
379.775
350.909
305.108
307.879
307.84
303.227
305.034
301.323
292.366
277.939
256.563
244.431
226.258
183.934
139.634
92.0601
74.4368
78.7453
83.9503
540.311
534.525
527.853
519.615
509.125
496.246
481.034
463.442
443.101
419.114
389.977
354.483
312.917
267.419
221.745
181.022
152.882
145.948
178.022
225.334
226.437
207.61
202.113
420.177
414.699
408.302
400.177
389.821
377.264
362.819
346.688
328.535
306.788
277.564
237.159
186.98
135.878
100.439
79.3152
68.1899
68.2351
85.8898
117.438
128.732
116.876
117.258
301.333
296.335
290.322
282.043
271.344
258.399
243.981
229.204
214.34
197.128
170.148
128.96
91.075
69.5302
61.83
56.8167
52.6232
51.2073
51.9728
57.9121
69.9554
73.9186
89.2433
184.476
180.402
174.509
164.6
150.924
134.839
119.206
106.039
95.9388
88.1008
78.9924
65.8111
62.3684
63.2176
58.7495
50.4482
44.7557
41.7665
38.3213
35.6435
40.7428
52.982
79.4284
75.7436
73.8768
68.9386
59.2354
46.1069
33.5129
24.4416
18.646
15.7665
17.1524
25.204
35.2074
42.4314
46.3455
45.3724
41.5707
37.8135
34.5556
31.0961
26.8338
24.8184
36.3578
45.7369
11.3105
10.7226
8.65106
5.04384
1.75668
0.253651
0.267884
0.804686
1.40645
2.32695
4.20864
8.18112
14.6991
20.6709
25.2832
28.3501
29.9734
28.6391
25.6733
22.2226
18.5567
14.2925
19.6557
-1.18288
-1.33184
-1.21305
-1.07561
-0.96527
-0.930511
-0.940014
-0.911837
-0.87217
-0.87557
-0.897124
-0.527387
0.762055
2.80291
5.68944
9.33499
15.0536
19.9921
20.6625
18.0867
15.0544
12.811
9.65449
-1.3264
-1.36452
-1.37202
-1.3467
-1.2805
-1.20245
-1.17174
-1.21706
-1.35336
-1.56418
-1.81458
-2.03629
-2.14567
-2.12567
-1.74032
-0.888606
1.37582
5.89809
11.0127
11.8308
11.4082
10.005
8.90461
-1.45439
-1.47231
-1.47678
-1.46075
-1.4259
-1.38984
-1.38698
-1.45328
-1.61042
-1.841
-2.08145
-2.23555
-2.28285
-2.27164
-2.17698
-2.03141
-1.94648
-1.10317
0.455229
2.76088
4.6666
4.51457
4.35121
-1.58029
-1.5945
-1.59858
-1.59078
-1.57843
-1.57395
-1.59544
-1.66476
-1.7963
-1.97969
-2.16943
-2.3006
-2.35421
-2.36209
-2.34008
-2.31132
-2.24392
-2.25003
-2.31088
-1.52478
-1.1326
-0.746445
-1.11287
-1.71345
-1.72421
-1.73164
-1.73311
-1.73372
-1.74275
-1.77239
-1.83542
-1.93923
-2.0777
-2.22502
-2.34225
-2.41287
-2.44797
-2.46029
-2.46317
-2.45167
-2.4174
-2.3681
-2.48641
-2.52151
-2.07937
-2.78344
-1.85328
-1.86054
-1.86813
-1.87416
-1.88165
-1.89674
-1.92758
-1.98215
-2.06476
-2.17146
-2.28729
-2.39012
-2.46658
-2.51755
-2.54864
-2.56747
-2.57576
-2.57046
-2.54544
-2.50089
-2.48229
-2.62844
-2.6757
-1.99399
-1.99912
-2.00537
-2.01286
-2.02362
-2.04133
-2.07099
-2.11751
-2.18356
-2.26664
-2.3578
-2.44425
-2.51659
-2.5724
-2.61303
-2.64139
-2.65928
-2.66777
-2.66669
-2.65349
-2.63914
-2.63311
-2.59547
-2.13306
-2.13697
-2.14176
-2.14924
-2.16081
-2.1788
-2.2061
-2.24549
-2.29841
-2.36327
-2.43478
-2.50546
-2.56892
-2.62219
-2.66464
-2.69675
-2.719
-2.73203
-2.73711
-2.73388
-2.72216
-2.69832
-2.65389
-2.27043
-2.27288
-2.27636
-2.28304
-2.29398
-2.31075
-2.33507
-2.36834
-2.41114
-2.46232
-2.51868
-2.57567
-2.629
-2.67596
-2.71529
-2.74647
-2.76919
-2.78329
-2.78884
-2.7855
-2.77204
-2.74623
-2.70377
-2.40591
-2.40675
-2.40907
-2.41463
-2.42427
-2.43913
-2.46029
-2.48838
-2.5234
-2.56438
-2.60922
-2.65502
-2.69885
-2.73849
-2.77256
-2.80026
-2.821
-2.83424
-2.83941
-2.83588
-2.82263
-2.79895
-2.76355
-2.53931
-2.53889
-2.5402
-2.54458
-2.55274
-2.56552
-2.58362
-2.60728
-2.63618
-2.66942
-2.70546
-2.74236
-2.77808
-2.81086
-2.83941
-2.86288
-2.88067
-2.8922
-2.89681
-2.8937
-2.88207
-2.86181
-2.83305
-2.67088
-2.66958
-2.67
-2.67326
-2.67999
-2.69079
-2.70608
-2.72593
-2.74988
-2.77708
-2.80633
-2.83622
-2.86528
-2.89216
-2.91574
-2.9352
-2.94996
-2.95956
-2.96343
-2.96088
-2.95128
-2.93472
-2.91165
-2.80092
-2.79895
-2.79859
-2.80087
-2.80633
-2.81534
-2.82815
-2.8447
-2.86455
-2.88693
-2.91084
-2.93519
-2.95888
-2.98088
-3.00025
-3.01625
-3.02836
-3.03622
-3.03939
-3.03737
-3.02969
-3.01651
-2.99824
-2.92956
-2.92708
-2.92606
-2.92753
-2.93191
-2.93937
-2.95002
-2.96375
-2.98017
-2.99862
-3.01826
-3.03821
-3.05761
-3.07565
-3.09158
-3.10476
-3.11472
-3.12116
-3.1238
-3.12227
-3.11623
-3.10592
-3.09159
-3.05696
-3.05412
-3.05258
-3.0534
-3.05688
-3.06303
-3.07184
-3.08318
-3.09673
-3.11195
-3.12814
-3.14457
-3.16055
-3.17543
-3.1886
-3.19952
-3.20779
-3.21315
-3.21538
-3.21427
-3.20958
-3.20155
-3.19037
-3.18339
-3.18032
-3.17842
-3.17873
-3.18147
-3.18652
-3.19379
-3.20313
-3.21429
-3.22683
-3.24021
-3.25382
-3.26706
-3.27941
-3.29037
-3.29949
-3.30643
-3.31094
-3.31288
-3.3121
-3.30846
-3.30221
-3.2935
-3.30918
-3.30602
-3.3039
-3.30382
-3.30595
-3.31008
-3.31606
-3.32374
-3.33292
-3.34325
-3.35431
-3.3656
-3.37664
-3.38695
-3.39614
-3.40382
-3.40969
-3.41355
-3.41527
-3.41477
-3.41197
-3.40713
-3.40037
-3.43465
-3.43153
-3.42931
-3.42895
-3.43055
-3.4339
-3.43881
-3.44512
-3.45265
-3.46115
-3.47029
-3.47967
-3.48889
-3.49755
-3.5053
-3.51183
-3.51686
-3.52022
-3.52181
-3.52157
-3.51948
-3.51579
-3.51062
-3.56004
-3.55702
-3.5548
-3.55424
-3.55542
-3.5581
-3.5621
-3.56727
-3.57344
-3.58042
-3.58795
-3.59573
-3.60343
-3.61072
-3.61729
-3.62288
-3.62724
-3.63023
-3.63177
-3.6318
-3.63034
-3.62762
-3.62375
-3.68542
-3.68257
-3.68041
-3.67971
-3.68053
-3.68265
-3.68588
-3.69008
-3.69512
-3.70083
-3.70701
-3.71344
-3.71985
-3.72597
-3.73154
-3.73633
-3.74015
-3.74286
-3.74438
-3.74467
-3.74375
-3.74184
-3.73903
-3.81079
-3.80813
-3.80606
-3.80528
-3.80581
-3.80744
-3.81001
-3.81339
-3.81747
-3.82211
-3.82716
-3.83243
-3.83772
-3.84282
-3.84752
-3.85161
-3.85495
-3.8574
-3.85889
-3.85939
-3.85892
-3.85766
-3.8557
-3.93607
-3.93359
-3.93165
-3.93082
-3.93111
-3.93232
-3.93433
-3.93701
-3.94028
-3.94401
-3.94809
-3.95236
-3.95668
-3.96088
-3.96478
-3.96824
-3.97111
-3.97329
-3.97471
-3.97536
-3.97522
-3.97446
-3.97314
-4.06117
-4.05888
-4.05706
-4.05621
-4.0563
-4.05716
-4.05869
-4.06078
-4.06336
-4.06632
-4.06956
-4.07297
-4.07644
-4.07984
-4.08302
-4.08588
-4.08829
-4.09018
-4.0915
-4.0922
-4.09228
-4.09188
-4.09104
-4.18602
-4.18391
-4.18221
-4.18135
-4.18128
-4.18187
-4.18299
-4.18458
-4.18657
-4.18887
-4.1914
-4.19408
-4.19682
-4.1995
-4.20205
-4.20435
-4.20633
-4.20792
-4.20907
-4.20976
-4.20998
-4.20982
-4.20933
-4.3106
-4.30865
-4.30706
-4.3062
-4.30602
-4.30638
-4.30717
-4.30835
-4.30984
-4.31159
-4.31352
-4.31558
-4.31768
-4.31976
-4.32174
-4.32355
-4.32513
-4.32642
-4.3274
-4.32803
-4.32831
-4.32831
-4.32807
-4.43489
-4.4331
-4.43162
-4.43078
-4.43051
-4.43068
-4.43121
-4.43205
-4.43313
-4.43442
-4.43586
-4.43739
-4.43897
-4.44055
-4.44205
-4.44344
-4.44466
-4.44568
-4.44648
-4.44703
-4.44733
-4.44744
-4.44738
-4.55893
-4.55729
-4.55592
-4.5551
-4.55477
-4.5548
-4.55512
-4.55568
-4.55643
-4.55735
-4.55838
-4.55949
-4.56064
-4.5618
-4.56292
-4.56396
-4.56489
-4.56568
-4.56631
-4.56678
-4.56709
-4.56726
-4.56733
-4.68274
-4.68125
-4.68
-4.67921
-4.67884
-4.67876
-4.67892
-4.67925
-4.67974
-4.68035
-4.68106
-4.68183
-4.68265
-4.68348
-4.6843
-4.68506
-4.68576
-4.68636
-4.68686
-4.68727
-4.68756
-4.68779
-4.68796
-4.80637
-4.80503
-4.80389
-4.80315
-4.80276
-4.80261
-4.80263
-4.80279
-4.80307
-4.80343
-4.80388
-4.80438
-4.80494
-4.80554
-4.80613
-4.80669
-4.80721
-4.80767
-4.80808
-4.80843
-4.80872
-4.80899
-4.80923
-4.92984
-4.92866
-4.92764
-4.92696
-4.92657
-4.92636
-4.92628
-4.92631
-4.92641
-4.92658
-4.92681
-4.92711
-4.92748
-4.92791
-4.92835
-4.92877
-4.92917
-4.92954
-4.92988
-4.93019
-4.93049
-4.93079
-4.93109
-5.05319
-5.05217
-5.05128
-5.05067
-5.05029
-5.05004
-5.0499
-5.04981
-5.04978
-5.04978
-5.04984
-5.04997
-5.05021
-5.05055
-5.0509
-5.05125
-5.05157
-5.05188
-5.05219
-5.05249
-5.05279
-5.05312
-5.05346
-5.17643
-5.17558
-5.17483
-5.1743
-5.17394
-5.17368
-5.17349
-5.17332
-5.17317
-5.17303
-5.17293
-5.17291
-5.17308
-5.1734
-5.17374
-5.17406
-5.17436
-5.17464
-5.17493
-5.17523
-5.17555
-5.17589
-5.17626
-5.29958
-5.2989
-5.29829
-5.29785
-5.29753
-5.29729
-5.29706
-5.29683
-5.29658
-5.29631
-5.29605
-5.29587
-5.29602
-5.29644
-5.29683
-5.29717
-5.29747
-5.29776
-5.29806
-5.29837
-5.29871
-5.29907
-5.29945
-5.4226
-5.42211
-5.42166
-5.42133
-5.42109
-5.42088
-5.42066
-5.42038
-5.42004
-5.41961
-5.41909
-5.41857
-5.41883
-5.41962
-5.42019
-5.42059
-5.42091
-5.42122
-5.42154
-5.42187
-5.42223
-5.4226
-5.42298
-5.54547
-5.5452
-5.54497
-5.54483
-5.54472
-5.54459
-5.54438
-5.54405
-5.54358
-5.54288
-5.54179
-5.54035
-5.54088
-5.54284
-5.54382
-5.5443
-5.54465
-5.54498
-5.54533
-5.54569
-5.54607
-5.54646
-5.54683
-5.66816
-5.66815
-5.66817
-5.66822
-5.66823
-5.66818
-5.66803
-5.66773
-5.66727
-5.66653
-5.66517
-5.66279
-5.66249
-5.66593
-5.66727
-5.66785
-5.66827
-5.66869
-5.66912
-5.66959
-5.67006
-5.67051
-5.67092
196.421
200.793
195.312
186.422
120.377
127.716
145.95
169.297
110.221
127.414
148.7
166.804
102.181
112.814
120.867
127.487
57.7873
62.8302
64.7959
68.7004
36.181
39.5931
36.2405
34.011
7.60947
7.44371
8.4602
9.93501
8.87629
8.9355
8.87398
9.03687
4.33473
4.43732
4.34519
4.28497
-1.78973
-1.84245
-1.49771
-1.15561
-2.97145
-2.64
-1.64003
-1.30723
-2.56225
-2.49526
-2.45651
-2.42716
-2.4994
-2.41851
-2.34643
-2.30475
-2.60291
-2.56504
-2.52588
-2.48553
-2.6558
-2.62226
-2.58957
-2.55924
-2.72558
-2.69704
-2.66745
-2.63986
-2.80227
-2.77773
-2.75141
-2.7269
-2.88661
-2.86584
-2.84303
-2.82185
-2.97807
-2.96091
-2.9417
-2.92386
-3.0756
-3.06176
-3.046
-3.03133
-3.17782
-3.16686
-3.15423
-3.14247
-3.28367
-3.27511
-3.26518
-3.25597
-3.3927
-3.38606
-3.37834
-3.37123
-3.5047
-3.49956
-3.49354
-3.48803
-3.61926
-3.61529
-3.61054
-3.60619
-3.73572
-3.73266
-3.72888
-3.72537
-3.85332
-3.851
-3.84801
-3.84518
-3.9715
-3.96979
-3.96748
-3.96526
-4.08994
-4.08875
-4.08706
-4.08541
-4.20864
-4.20785
-4.20671
-4.20559
-4.32768
-4.32722
-4.32654
-4.32587
-4.4472
-4.447
-4.44667
-4.44638
-4.56731
-4.56729
-4.56723
-4.56723
-4.68805
-4.68815
-4.68828
-4.68847
-4.8094
-4.80958
-4.80982
-4.81014
-4.93132
-4.93154
-4.93184
-4.93222
-5.05372
-5.05396
-5.05428
-5.05468
-5.17654
-5.17678
-5.17709
-5.17748
-5.29972
-5.29995
-5.30023
-5.30058
-5.42323
-5.42343
-5.42366
-5.42394
-5.54706
-5.54721
-5.54738
-5.54756
-5.67115
-5.67128
-5.67139
-5.6715
260.786
276.903
268.194
265.004
256.132
253.79
257.19
253.428
258.133
247.755
217.064
190.161
161.319
109.893
71.488
58.1262
62.303
68.9747
73.9804
208.191
221.446
230.134
222.767
198.305
192.777
191.664
180.446
186.57
173.272
131.999
107.336
92.3047
45.4414
29.2375
34.2104
45.7821
52.7245
57.9099
181.204
192.217
195.389
179.636
155.202
144.839
127.188
105.165
91.7046
71.6467
47.0702
39.1079
44.9418
20.3357
18.4064
23.1789
30.3601
34.308
40.9881
138.348
143.947
143.634
130.438
118.538
95.791
64.9075
43.8306
31.3114
22.0068
19.7587
21.8003
20.5257
12.733
12.8473
15.5756
18.1813
18.686
23.5663
75.9649
84.1594
89.516
86.1008
72.1071
45.5755
25.6081
19.5572
17.6241
16.9107
17.728
18.2102
16.0175
11.6514
9.78486
9.89921
8.70521
7.79002
8.52631
33.604
44.8445
51.1653
44.4189
29.6582
20.3278
17.0768
17.2059
16.7281
16.2722
16.4655
16.9219
15.5331
11.2678
7.44632
4.72261
2.74159
2.61779
3.04723
13.3098
20.2668
21.9163
17.0419
11.5871
11.6348
13.5874
13.2786
12.7976
13.5537
14.9472
15.5855
14.2597
10.3367
5.26599
1.94799
1.5796
1.57392
1.58208
10.2397
10.5876
5.84899
5.0594
7.13215
7.727
8.08895
8.19744
7.52162
9.86315
12.9117
13.4784
11.368
7.5764
2.62842
0.957332
1.07035
1.07186
1.05324
4.47894
2.88336
0.897058
1.13569
1.81663
2.35374
1.89752
2.22927
2.16083
5.53658
8.93559
8.59937
6.28664
2.71117
0.733598
0.35878
0.649588
0.72815
0.766155
-0.729327
-1.57155
-1.956
-1.75075
-1.2667
-0.883771
-1.17363
-0.853207
-0.368972
0.997991
3.5274
3.82182
1.82062
0.0825949
-0.0734558
-0.0101445
0.234006
0.399697
0.44665
-1.7762
-2.10977
-2.11509
-2.02126
-1.88908
-1.69885
-1.5076
-1.45647
-1.33175
-1.18434
0.600526
1.77153
-0.124496
-1.50768
-0.753961
-0.282854
-0.0349341
0.149447
0.178127
-2.36029
-2.15707
-2.04599
-1.9807
-1.919
-1.84087
-1.71579
-1.65418
-1.694
-1.84311
-1.75261
-0.135882
-0.131463
-1.30247
-0.912037
-0.547111
-0.265126
-0.0590152
-0.0362237
-2.26403
-2.21278
-2.16214
-2.10053
-2.03326
-1.9654
-1.88961
-1.84382
-1.87405
-1.9642
-2.01
-2.08887
-2.07654
-1.94638
-1.42648
-0.943927
-0.596621
-0.306653
-0.228477
-2.4123
-2.34156
-2.27817
-2.21138
-2.14324
-2.08094
-2.04424
-2.04072
-2.06505
-2.09742
-2.13205
-2.17985
-2.2198
-2.20455
-1.85146
-1.43698
-1.11237
-0.758067
-0.56757
-2.50961
-2.44396
-2.38092
-2.31868
-2.2592
-2.20852
-2.18116
-2.18445
-2.20011
-2.2167
-2.23857
-2.27047
-2.29046
-2.23876
-2.07095
-1.91426
-1.75906
-1.4987
-1.20509
-2.59806
-2.54191
-2.48624
-2.43188
-2.38207
-2.34216
-2.31952
-2.31636
-2.32571
-2.34069
-2.35893
-2.38026
-2.3915
-2.3692
-2.32719
-2.33715
-2.36516
-2.29852
-1.85329
-2.69137
-2.64449
-2.59728
-2.55143
-2.51014
-2.4777
-2.45855
-2.45374
-2.45993
-2.47383
-2.49377
-2.51782
-2.53963
-2.55476
-2.5835
-2.66577
-2.78872
-2.88011
-2.40727
-2.7921
-2.75353
-2.7142
-2.67611
-2.64222
-2.61566
-2.59952
-2.59501
-2.60063
-2.61484
-2.63721
-2.66661
-2.70061
-2.74028
-2.79984
-2.8995
-3.02996
-3.21327
-2.86323
-2.89931
-2.86801
-2.83571
-2.8044
-2.77679
-2.75526
-2.7421
-2.7386
-2.74481
-2.75953
-2.78306
-2.81507
-2.8551
-2.90466
-2.97107
-3.06289
-3.17322
-3.31896
-3.13154
-3.01133
-2.98622
-2.96005
-2.93459
-2.91232
-2.89512
-2.88477
-2.88246
-2.88869
-2.9036
-2.92662
-2.95795
-2.99768
-3.04655
-3.10715
-3.1809
-3.25841
-3.33371
-3.2807
-3.12646
-3.10655
-3.08561
-3.06518
-3.04744
-3.03393
-3.02604
-3.0248
-3.0308
-3.04444
-3.06543
-3.09363
-3.12895
-3.17141
-3.22114
-3.27671
-3.33019
-3.3705
-3.38227
-3.24345
-3.22784
-3.2113
-3.19512
-3.18121
-3.17079
-3.16491
-3.1644
-3.16979
-3.18133
-3.19898
-3.22248
-3.25139
-3.28499
-3.32242
-3.36195
-3.39796
-3.41806
-3.44138
-3.3616
-3.3495
-3.33658
-3.32395
-3.31318
-3.30523
-3.30088
-3.30071
-3.30508
-3.31414
-3.32779
-3.34577
-3.3674
-3.39153
-3.41687
-3.44176
-3.46204
-3.46173
-3.44351
-3.48063
-3.4713
-3.4613
-3.45152
-3.44324
-3.43717
-3.43383
-3.43363
-3.43672
-3.44312
-3.45267
-3.46502
-3.47938
-3.49452
-3.50898
-3.52111
-3.52719
-3.50892
-3.46463
-3.6004
-3.5932
-3.58547
-3.57791
-3.57149
-3.56674
-3.56398
-3.56342
-3.56509
-3.56888
-3.57455
-3.5817
-3.58955
-3.59689
-3.60233
-3.60434
-3.59932
-3.57001
-3.51718
-3.72075
-3.71515
-3.70914
-3.70323
-3.69816
-3.69427
-3.69174
-3.69063
-3.69086
-3.69225
-3.6945
-3.69718
-3.69961
-3.70075
-3.69937
-3.69414
-3.68179
-3.648
-3.59585
-3.84146
-3.83707
-3.83236
-3.82767
-3.82354
-3.82017
-3.81763
-3.81588
-3.81478
-3.81409
-3.81351
-3.81261
-3.81081
-3.80736
-3.80125
-3.79137
-3.7749
-3.74067
-3.69244
-3.96232
-3.9589
-3.95518
-3.95139
-3.94791
-3.94484
-3.94217
-3.9398
-3.93754
-3.93516
-3.93236
-3.92875
-3.92388
-3.91721
-3.90806
-3.89549
-3.87712
-3.84439
-3.80089
-4.08319
-4.08058
-4.07765
-4.07455
-4.07154
-4.06867
-4.06585
-4.06294
-4.05973
-4.05604
-4.05159
-4.04606
-4.0391
-4.03035
-4.01938
-4.00548
-3.98661
-3.95615
-3.91735
-4.20405
-4.20213
-4.19986
-4.19732
-4.19469
-4.19197
-4.18903
-4.18571
-4.18182
-4.17716
-4.17156
-4.16475
-4.15649
-4.14655
-4.13466
-4.1203
-4.10172
-4.0737
-4.03917
-4.32494
-4.32363
-4.32191
-4.31985
-4.31755
-4.31498
-4.31201
-4.30844
-4.3041
-4.29883
-4.29249
-4.28493
-4.27598
-4.2655
-4.25332
-4.23904
-4.22112
-4.19541
-4.16457
-4.44596
-4.44516
-4.44393
-4.44229
-4.4403
-4.4379
-4.43497
-4.43133
-4.42677
-4.42119
-4.41448
-4.40658
-4.39739
-4.38685
-4.37481
-4.36091
-4.34379
-4.32007
-4.29228
-4.56721
-4.56683
-4.56602
-4.56476
-4.56307
-4.56088
-4.55808
-4.55449
-4.54993
-4.54429
-4.53752
-4.5296
-4.52052
-4.51025
-4.49865
-4.4853
-4.46894
-4.44681
-4.42133
-4.68874
-4.68871
-4.68825
-4.68733
-4.68594
-4.684
-4.6814
-4.67799
-4.67361
-4.66813
-4.66153
-4.65384
-4.64512
-4.6354
-4.62449
-4.61184
-4.59614
-4.57499
-4.55087
-4.81061
-4.81084
-4.81067
-4.81006
-4.80897
-4.80732
-4.805
-4.80189
-4.79784
-4.79269
-4.78642
-4.77912
-4.77095
-4.76202
-4.75209
-4.7404
-4.72547
-4.70473
-4.68192
-4.93281
-4.93322
-4.93329
-4.93295
-4.93215
-4.93082
-4.92886
-4.92617
-4.9226
-4.91794
-4.91212
-4.90529
-4.89774
-4.88981
-4.88131
-4.87105
-4.85742
-4.83868
-4.81689
-5.05532
-5.05585
-5.05608
-5.05597
-5.05545
-5.05445
-5.05292
-5.05078
-5.04787
-5.04385
-5.03855
-5.03227
-5.02579
-5.01918
-5.01232
-5.00391
-4.99256
-4.97657
-4.95484
-5.17811
-5.17869
-5.17903
-5.17909
-5.1788
-5.17814
-5.17708
-5.17561
-5.17358
-5.17038
-5.16582
-5.16038
-5.15514
-5.14994
-5.14469
-5.13916
-5.13133
-5.1163
-5.09328
-5.30115
-5.3017
-5.30207
-5.30222
-5.30212
-5.30175
-5.30118
-5.30049
-5.29964
-5.29742
-5.2936
-5.28932
-5.28494
-5.28085
-5.27706
-5.27453
-5.27138
-5.25743
-5.23357
-5.4244
-5.42483
-5.42512
-5.42525
-5.42522
-5.42507
-5.42494
-5.42527
-5.42644
-5.42567
-5.42173
-5.41797
-5.41434
-5.411
-5.4083
-5.40776
-5.4089
-5.39834
-5.37781
-5.54784
-5.54805
-5.54812
-5.54806
-5.54792
-5.5478
-5.54805
-5.54996
-5.55571
-5.55731
-5.55135
-5.54662
-5.54309
-5.54008
-5.53816
-5.5394
-5.54641
-5.54396
-5.53588
-5.67163
-5.67159
-5.67136
-5.67096
-5.6705
-5.67018
-5.67054
-5.6737
-5.68563
-5.68463
-5.6775
-5.67289
-5.66988
-5.66769
-5.66653
-5.66855
-5.67689
-5.68832
-5.71612
)
;

boundaryField
{
    leftWall
    {
        type            calculated;
        value           nonuniform List<scalar> 
50
(
1028.76
971.156
913.759
856.637
799.683
742.801
685.945
629.109
540.311
420.177
301.333
184.476
75.7436
11.3105
-1.18288
-1.3264
-1.45439
-1.58029
-1.71345
-1.85328
-1.99399
-2.13306
-2.27043
-2.40591
-2.53931
-2.67088
-2.80092
-2.92956
-3.05696
-3.18339
-3.30918
-3.43465
-3.56004
-3.68542
-3.81079
-3.93607
-4.06117
-4.18602
-4.3106
-4.43489
-4.55893
-4.68274
-4.80637
-4.92984
-5.05319
-5.17643
-5.29958
-5.4226
-5.54547
-5.66816
)
;
    }
    rightWall
    {
        type            calculated;
        value           nonuniform List<scalar> 
50
(
350.402
290.055
224.338
153.658
107.26
95.407
89.7839
83.9503
73.9804
57.9099
40.9881
23.5663
8.52631
3.04723
1.58208
1.05324
0.766155
0.44665
0.178127
-0.0362237
-0.228477
-0.56757
-1.20509
-1.85329
-2.40727
-2.86323
-3.13154
-3.2807
-3.38227
-3.44138
-3.44351
-3.46463
-3.51718
-3.59585
-3.69244
-3.80089
-3.91735
-4.03917
-4.16457
-4.29228
-4.42133
-4.55087
-4.68192
-4.81689
-4.95484
-5.09328
-5.23357
-5.37781
-5.53588
-5.71612
)
;
    }
    lowerWall
    {
        type            calculated;
        value           nonuniform List<scalar> 
62
(
1058.19
1053.3
1046.25
1036.67
1024.89
1010.87
994.568
976.022
955.327
932.665
908.329
882.818
857.065
832.251
809.985
793.075
781.952
775.812
771.487
764.968
754.978
747.952
748.799
719.427
660.207
599.573
537.981
476.464
415.891
356.743
297.56
252.491
256.863
255.066
248.016
754.992
716.58
675.666
627.263
573.584
514.015
449.187
379.775
771.637
767.366
740.546
679.761
631.473
610.457
597.077
571.598
542.098
532.232
559.713
597.554
604.363
582.169
541.646
493.231
442.884
397.296
378.545
)
;
    }
    atmosphere
    {
        type            calculated;
        value           nonuniform List<scalar> 
46
(
-5.72904
-5.72904
-5.72904
-5.72904
-5.72904
-5.72904
-5.72904
-5.72904
-5.72904
-5.72904
-5.72904
-5.72904
-5.72905
-5.72913
-5.72931
-5.72958
-5.72996
-5.73041
-5.73093
-5.7315
-5.73207
-5.73262
-5.7331
-5.73338
-5.73354
-5.73366
-5.73375
-5.73382
-5.73368
-5.73324
-5.73254
-5.73166
-5.73072
-5.72988
-5.72928
-5.72904
-5.72904
-5.72904
-5.72904
-5.72906
-5.72905
-5.72904
-5.72904
-5.72904
-5.72904
-5.86551
)
;
    }
    defaultFaces
    {
        type            empty;
    }
}


// ************************************************************************* //
