/*--------------------------------*- C++ -*----------------------------------*\
| =========                 |                                                 |
| \\      /  F ield         | OpenFOAM: The Open Source CFD Toolbox           |
|  \\    /   O peration     | Version:  v2012                                 |
|   \\  /    A nd           | Website:  www.openfoam.com                      |
|    \\/     M anipulation  |                                                 |
\*---------------------------------------------------------------------------*/
FoamFile
{
    version     2.0;
    format      ascii;
    class       volScalarField;
    location    "1";
    object      p_rgh;
}
// * * * * * * * * * * * * * * * * * * * * * * * * * * * * * * * * * * * * * //

dimensions      [1 -1 -2 0 0 0 0];


internalField   nonuniform List<scalar> 
2268
(
1058.19
1053.3
1046.25
1036.67
1024.89
1010.87
994.568
976.022
955.327
932.665
908.329
882.818
857.065
832.251
809.985
793.075
781.952
775.812
771.487
764.968
754.978
747.952
748.799
1059.44
1054.55
1047.52
1038.06
1026.41
1012.43
996.087
977.397
956.454
933.422
908.601
882.511
856.125
830.805
808.473
790.101
777.323
770.023
765.592
760.2
752
746.904
748.323
1060.91
1055.84
1048.93
1039.69
1028.23
1014.35
998.013
979.236
958.079
934.665
909.258
882.416
854.973
828.415
804.552
784.978
771.086
763.078
759.162
755.559
749.218
745.333
746.62
1062.64
1057.23
1050.4
1041.4
1030.11
1016.34
1000.06
981.255
959.937
936.159
910.122
882.338
853.682
825.601
799.969
778.675
763.622
755.665
753.497
752.515
747.141
742.647
743.923
1064.55
1058.8
1052.01
1043.19
1032.06
1018.42
1002.24
983.465
962.059
937.975
911.301
882.458
852.322
822.371
794.629
771.348
755.144
747.69
748.248
750.921
746.326
740.17
741.241
1066.52
1060.56
1053.78
1045.12
1034.14
1020.65
1004.61
985.946
964.548
940.238
912.926
882.879
850.94
818.67
788.311
762.534
744.935
738.206
742.482
750.425
747.087
738.713
739.566
1068.53
1062.47
1055.72
1047.21
1036.38
1023.06
1007.21
988.756
967.488
943.061
915.123
883.707
849.599
814.47
780.812
751.745
732.079
725.852
735.248
751.239
749.871
739.144
739.286
1070.55
1064.53
1057.82
1049.44
1038.76
1025.62
1010.02
991.85
970.843
946.438
917.927
885.005
848.325
809.621
771.664
737.648
713.307
705.486
722.409
752.36
752.633
737.723
738.955
771.637
767.366
740.546
679.761
631.473
610.457
597.077
571.598
542.098
532.232
559.713
597.554
604.363
582.169
541.646
493.231
442.884
397.296
378.545
780.814
781.528
743.987
673.101
621.376
604.361
595.326
569.705
535.918
514.93
534.72
573.636
588.364
577.882
542.425
495.291
443.149
393.322
374.669
816.396
791.155
737.704
658.329
603.093
582.387
581.065
559.47
518.719
484.518
505.106
554.725
574.259
572.109
551.974
505.827
448.524
389.586
365.382
831.216
790.349
724.547
616.573
480.974
476.604
474.489
446.574
403.187
366.801
404.684
481.413
526.762
568.985
554.273
511.171
449.773
373.558
340.986
835.698
786.896
701.665
496.406
455.819
465.907
456.871
416.998
369.881
348.053
372.293
431.012
455.269
511.184
555.014
504.351
407.278
240.406
171.585
834.297
784.142
663.4
438.942
447.907
596.043
590.023
411.202
365.256
345.092
494.869
518.384
491.369
461.468
474.082
456.688
296.625
124.677
113.535
827.59
783.599
606.864
432.126
552.238
598.796
598.348
547.46
359.494
337.816
505.616
512.085
504.843
471.708
316.988
238.105
134.321
105.377
110.85
816.229
775.131
469.546
429.393
608.653
604.852
606.895
603.184
367.64
328.848
404.766
513.247
495.057
452.077
405.852
166.906
99.5034
103.052
108.501
1073.78
1067.99
1061.32
1053.08
1042.59
1029.71
1014.5
996.909
976.568
952.581
923.444
887.946
846.366
800.803
753.548
682.531
591.021
536.323
558.932
706.698
753.186
733.458
708.33
1078.84
1073.36
1066.96
1058.84
1048.48
1035.93
1021.48
1005.35
987.197
965.449
936.222
895.775
844.907
758.074
542.817
282.146
155.621
121.563
160.446
544.401
777.31
764.937
750.208
1085.19
1080.19
1074.18
1065.9
1055.2
1042.25
1027.84
1013.06
998.194
980.965
953.858
881.29
667.627
268.238
88.7914
77.3766
72.2931
67.7028
78.5129
379.188
836.763
842.102
854.426
1093.53
1089.45
1083.56
1073.65
1059.97
1026.35
960.779
890.238
823.272
753.12
641.815
410.018
163.113
95.9354
85.2882
74.4403
64.7448
57.8632
52.8323
125.281
634.702
941.036
966.088
1017.94
1006.03
943.142
829.749
667.801
479.136
324.461
220.752
158.031
113.538
97.5331
111.231
137.043
140.893
137.679
132.107
67.8478
50.4583
44.3241
39.7961
110.83
785.435
1051.59
242.945
240.495
188.139
107.697
41.8733
11.8392
7.62342
7.88431
8.41652
9.86186
18.4367
87.553
120.453
124.707
128.792
129.371
116.465
45.7991
40.2096
35.3673
30.0195
25.3446
333.328
0.790009
0.9678
1.57823
1.90118
1.99548
2.07487
2.19388
2.36464
2.59731
2.77205
4.31084
26.1573
48.2005
77.9014
107.611
117.049
116.514
90.8709
38.2643
30.8211
27.3775
24.9921
21.9672
0.185404
0.217985
0.32299
0.415417
0.537028
0.718576
0.855046
0.923862
0.92778
0.854226
0.710477
-0.106366
-0.534044
-0.579024
0.0140383
5.44922
57.4495
87.2204
87.1995
81.6203
29.1967
25.3524
22.4027
0.0985403
0.0959715
0.120414
0.160041
0.216398
0.283518
0.331155
0.317413
0.210954
0.0278424
-0.229888
-0.532626
-0.69026
-0.70515
-0.614473
-0.396297
-0.0240779
28.6212
80.3241
78.3313
76.7684
75.7666
38.5009
0.0832824
0.0723418
0.0747391
0.0888301
0.107954
0.123104
0.118497
0.0695896
-0.0434091
-0.213092
-0.404849
-0.569726
-0.664241
-0.691869
-0.67478
-0.653575
-0.574766
-0.550448
1.36138
55.4693
75.9407
72.2862
75.1414
0.0726391
0.062585
0.0565949
0.056674
0.0579402
0.0522375
0.0277926
-0.028383
-0.125592
-0.259865
-0.407083
-0.532441
-0.613062
-0.657513
-0.673229
-0.67726
-0.666607
-0.640144
-0.585291
-0.766719
4.57875
30.6938
5.80005
0.057464
0.0503604
0.0430817
0.0374184
0.0304399
0.0162294
-0.0131732
-0.0657477
-0.14633
-0.251809
-0.367476
-0.472155
-0.549086
-0.603674
-0.637412
-0.656676
-0.665152
-0.659859
-0.634917
-0.590403
-0.571685
-0.717845
-0.765141
0.0418372
0.0367421
0.0305667
0.0231568
0.0125234
-0.00496998
-0.0342802
-0.0802777
-0.145785
-0.228532
-0.319633
-0.406518
-0.478832
-0.534932
-0.576704
-0.605516
-0.623453
-0.63191
-0.630871
-0.617683
-0.603328
-0.597296
-0.55966
0.0279475
0.0240414
0.0192644
0.0118074
0.000263896
-0.017684
-0.0449029
-0.084168
-0.136955
-0.201729
-0.273233
-0.343988
-0.40765
-0.460855
-0.503359
-0.535684
-0.557988
-0.571013
-0.576095
-0.57286
-0.56114
-0.537294
-0.492879
0.0157625
0.013313
0.00983378
0.00315861
-0.00777101
-0.0245327
-0.048832
-0.0820852
-0.124851
-0.176013
-0.232375
-0.289375
-0.34274
-0.389741
-0.429051
-0.460239
-0.482985
-0.497093
-0.502645
-0.499301
-0.485843
-0.460036
-0.417573
0.00547803
0.00463746
0.00231323
-0.00324673
-0.0128847
-0.0277444
-0.048892
-0.0769791
-0.111995
-0.152972
-0.19781
-0.243612
-0.287447
-0.327096
-0.361171
-0.388866
-0.409608
-0.422854
-0.428025
-0.424491
-0.41124
-0.38756
-0.352159
-0.00272597
-0.00230805
-0.00362221
-0.00799964
-0.0161589
-0.0289407
-0.0470362
-0.0706932
-0.0995978
-0.132833
-0.168878
-0.20578
-0.241495
-0.274273
-0.302829
-0.326302
-0.344084
-0.355616
-0.360229
-0.357117
-0.345492
-0.325231
-0.29647
-0.00910866
-0.00780323
-0.0082241
-0.0114857
-0.0182206
-0.0290154
-0.0443099
-0.0641507
-0.0881034
-0.115305
-0.144557
-0.174446
-0.203507
-0.230386
-0.253965
-0.273421
-0.288185
-0.297785
-0.30166
-0.29911
-0.289507
-0.272944
-0.249876
-0.0139486
-0.0119825
-0.0116192
-0.0138996
-0.0193652
-0.0283752
-0.0411809
-0.057732
-0.0775856
-0.0999632
-0.123871
-0.14822
-0.171915
-0.193912
-0.213281
-0.229281
-0.241396
-0.249247
-0.252422
-0.250404
-0.242717
-0.229544
-0.211272
-0.0173949
-0.0149208
-0.0138998
-0.0153632
-0.0197465
-0.0272104
-0.0378567
-0.0515883
-0.0680113
-0.0864594
-0.106098
-0.126045
-0.145445
-0.163487
-0.179417
-0.192594
-0.202559
-0.209001
-0.211634
-0.210103
-0.20407
-0.193752
-0.179429
-0.0196036
-0.0167608
-0.0152262
-0.0160377
-0.0195208
-0.0256744
-0.0344834
-0.0458265
-0.0593773
-0.0745933
-0.0907838
-0.107216
-0.123195
-0.138072
-0.151241
-0.162165
-0.170436
-0.175791
-0.178027
-0.176912
-0.172221
-0.164188
-0.153014
-0.0208351
-0.0177669
-0.0158686
-0.0161749
-0.0189148
-0.0239687
-0.0312361
-0.0405801
-0.0517371
-0.0642825
-0.0776603
-0.091263
-0.104507
-0.116857
-0.127818
-0.136943
-0.143876
-0.148387
-0.150326
-0.149544
-0.145905
-0.139654
-0.130947
-0.0214295
-0.0182743
-0.0161541
-0.0160771
-0.0182005
-0.0223308
-0.0283121
-0.0359966
-0.0451685
-0.055502
-0.0665629
-0.0778561
-0.0888895
-0.0992083
-0.108396
-0.116077
-0.121947
-0.125803
-0.127525
-0.127022
-0.124224
-0.119381
-0.112625
-0.0217107
-0.0185852
-0.0163653
-0.0160052
-0.0176137
-0.0209626
-0.0258688
-0.0321787
-0.0397091
-0.0482093
-0.057347
-0.0667295
-0.0759473
-0.084611
-0.0923636
-0.0988859
-0.103916
-0.107276
-0.108866
-0.108629
-0.106541
-0.102853
-0.097678
-0.0219007
-0.0188891
-0.0166643
-0.0161035
-0.0172814
-0.0199644
-0.0239649
-0.0291308
-0.0353016
-0.0422799
-0.0498129
-0.0575956
-0.0652959
-0.0725852
-0.0791576
-0.0847394
-0.089105
-0.0920983
-0.0936325
-0.0936641
-0.0922014
-0.0894819
-0.0856103
-0.0220909
-0.019243
-0.0170792
-0.0163837
-0.0172036
-0.0193166
-0.0225465
-0.0267508
-0.0317872
-0.0374956
-0.0436815
-0.0501105
-0.0565198
-0.0626394
-0.0682119
-0.0730044
-0.0768232
-0.0795298
-0.0810453
-0.0813365
-0.0804186
-0.0785077
-0.0757
-0.0222648
-0.0196029
-0.0175397
-0.0167601
-0.017285
-0.0189106
-0.0214807
-0.0248681
-0.0289479
-0.0335873
-0.0386333
-0.0439054
-0.0491989
-0.0542984
-0.0589931
-0.0630888
-0.0664216
-0.0688703
-0.0703619
-0.0708657
-0.0703949
-0.0691351
-0.0671723
-0.0223471
-0.0198755
-0.0179314
-0.0171036
-0.0173882
-0.0186004
-0.0206058
-0.0232953
-0.0265617
-0.0302934
-0.0343676
-0.0386435
-0.0429632
-0.0471587
-0.0510623
-0.0545166
-0.0573858
-0.0595668
-0.0609947
-0.0616372
-0.0615013
-0.0607387
-0.0594235
-0.0222512
-0.0199645
-0.0181436
-0.0172916
-0.0173828
-0.018249
-0.0197751
-0.02187
-0.0244432
-0.0274012
-0.0306439
-0.0340607
-0.0375297
-0.0409222
-0.0441078
-0.0469629
-0.0493788
-0.0512707
-0.0525823
-0.0532819
-0.05337
-0.0529661
-0.0521311
-0.0219109
-0.0197997
-0.0180983
-0.0172376
-0.0171756
-0.0177571
-0.0188824
-0.0204755
-0.0224611
-0.0247617
-0.0272955
-0.0299752
-0.0327074
-0.0353941
-0.0379366
-0.0402397
-0.0422195
-0.0438094
-0.0449621
-0.0456497
-0.0458685
-0.0457097
-0.0452223
-0.0212928
-0.0193473
-0.0177592
-0.0169014
-0.0167208
-0.0170725
-0.0178684
-0.0190442
-0.0205375
-0.0222847
-0.0242202
-0.0262755
-0.0283796
-0.030459
-0.0324397
-0.0342503
-0.0358276
-0.0371211
-0.038094
-0.0387238
-0.0390055
-0.0390076
-0.0387686
-0.0203951
-0.0186066
-0.0171275
-0.0162832
-0.0160142
-0.0161843
-0.0167141
-0.0175482
-0.018635
-0.019923
-0.0213608
-0.0228965
-0.024477
-0.0260476
-0.0275532
-0.0289409
-0.0301646
-0.0311868
-0.0319814
-0.0325324
-0.0328352
-0.0329412
-0.0328802
-0.0192386
-0.0176011
-0.0162305
-0.0154109
-0.0150797
-0.0151093
-0.0154274
-0.0159858
-0.0167415
-0.0176541
-0.0186851
-0.0197969
-0.0209517
-0.022109
-0.0232274
-0.024267
-0.0251947
-0.0259847
-0.0266201
-0.0270909
-0.0273944
-0.0275692
-0.0276381
-0.017857
-0.0163676
-0.0151089
-0.0143257
-0.013955
-0.0138783
-0.0140302
-0.0143684
-0.0148576
-0.015467
-0.0161703
-0.0169434
-0.0177616
-0.0185951
-0.0194102
-0.0201762
-0.0208691
-0.0214727
-0.0219777
-0.0223798
-0.0226782
-0.0229021
-0.0230685
-0.0162877
-0.0149476
-0.0138067
-0.0130715
-0.0126803
-0.0125256
-0.0125485
-0.012712
-0.0129877
-0.0133538
-0.0137954
-0.0143022
-0.014863
-0.0154548
-0.016045
-0.0166073
-0.0171249
-0.0175888
-0.0179961
-0.0183468
-0.0186423
-0.0189047
-0.0191461
-0.014566
-0.0133797
-0.0123642
-0.0116872
-0.0112917
-0.0110825
-0.0110068
-0.0110324
-0.0111363
-0.0113056
-0.0115368
-0.0118353
-0.0122079
-0.0126339
-0.0130721
-0.0134955
-0.0138925
-0.0142604
-0.0146014
-0.0149193
-0.0152172
-0.0155116
-0.0158104
-0.0127203
-0.0116951
-0.0108124
-0.0102028
-0.00981792
-0.00957474
-0.00942606
-0.00934276
-0.00930659
-0.00931188
-0.00936742
-0.00949882
-0.00974326
-0.0100777
-0.0104333
-0.0107771
-0.0111026
-0.0114133
-0.0117164
-0.0120185
-0.0123239
-0.0126451
-0.0129858
-0.0107689
-0.00991331
-0.00916911
-0.00863595
-0.00827684
-0.00801991
-0.00782132
-0.00765341
-0.00750078
-0.00736364
-0.00726184
-0.00724644
-0.00741507
-0.00773638
-0.00807719
-0.00839498
-0.00869168
-0.00897873
-0.00926821
-0.0095694
-0.00988723
-0.0102303
-0.0105983
-0.00871646
-0.00803725
-0.00743427
-0.00698899
-0.00667462
-0.00642655
-0.00620174
-0.005972
-0.00572237
-0.00545472
-0.00519061
-0.00501008
-0.00516079
-0.00557729
-0.00597409
-0.00631099
-0.00661293
-0.00690313
-0.00719918
-0.00751242
-0.00784727
-0.00820778
-0.00858884
-0.0065481
-0.0060526
-0.0056022
-0.00527347
-0.00503709
-0.00482828
-0.00460222
-0.0043275
-0.00398451
-0.00356031
-0.00303364
-0.00251534
-0.00277252
-0.00356854
-0.00414017
-0.00453156
-0.00485732
-0.00516653
-0.00548254
-0.00581718
-0.00617213
-0.006545
-0.00692396
-0.00422514
-0.00395409
-0.00371962
-0.00357834
-0.00347468
-0.00334076
-0.0031303
-0.00280488
-0.00232874
-0.00163599
-0.000540935
0.000899448
0.000364962
-0.00158723
-0.00257142
-0.00304846
-0.00340098
-0.0037351
-0.00408042
-0.00444589
-0.00482676
-0.0052114
-0.00558071
-0.00171293
-0.00170278
-0.00172683
-0.00177427
-0.00179196
-0.00173819
-0.00158232
-0.00129153
-0.000824509
-8.25007e-05
0.00127445
0.00365158
0.00395431
0.0005117
-0.000827378
-0.00140438
-0.00183052
-0.00224513
-0.00268194
-0.00314331
-0.00361375
-0.00406839
-0.00447651
674.259
678.632
704.549
711.337
725.681
762.739
789.153
816.212
873.1
891.715
915.758
876.235
988.723
999.572
1010.42
939.913
1065.68
1070
1073.69
1074.69
876.36
892.98
735.896
612.839
19.8303
19.87
22.1266
30.6931
22.5204
23.9947
25.3238
27.0947
28.1701
46.0521
49.0553
40.493
75.4363
75.9887
76.3288
76.6781
0.513054
13.8743
67.103
79.4259
-0.651847
-0.585115
-0.546795
-0.517419
-0.463596
-0.38271
-0.310629
-0.268951
-0.4419
-0.404035
-0.364875
-0.32453
-0.369596
-0.336057
-0.303378
-0.273046
-0.314191
-0.28565
-0.256066
-0.22847
-0.265689
-0.241147
-0.214833
-0.190324
-0.224833
-0.204064
-0.18126
-0.160076
-0.191097
-0.17394
-0.154733
-0.136895
-0.163432
-0.149592
-0.133832
-0.119168
-0.140461
-0.129501
-0.116871
-0.105109
-0.121121
-0.112554
-0.102629
-0.0934187
-0.104954
-0.0983097
-0.0905929
-0.0834838
-0.0917542
-0.0866142
-0.0805966
-0.0750894
-0.0811253
-0.0771515
-0.0724008
-0.0680504
-0.0723909
-0.0693322
-0.0655473
-0.0620433
-0.0647999
-0.0624801
-0.0594847
-0.0566594
-0.0577759
-0.0560677
-0.0537633
-0.0515445
-0.0510305
-0.0498315
-0.0481466
-0.0464973
-0.0445277
-0.0437455
-0.0426046
-0.0414809
-0.0383723
-0.0379204
-0.0372354
-0.0365709
-0.0327018
-0.0325007
-0.032176
-0.0318865
-0.0276181
-0.0275984
-0.0275405
-0.0275355
-0.0231627
-0.0232668
-0.0233923
-0.0235857
-0.019321
-0.0195031
-0.0197427
-0.0200605
-0.0160397
-0.0162648
-0.0165646
-0.0169475
-0.0132477
-0.0134897
-0.0138101
-0.014213
-0.0108746
-0.0111144
-0.0114265
-0.0118155
-0.00886388
-0.00908689
-0.00936943
-0.00971724
-0.0071811
-0.0073741
-0.00760773
-0.00788708
-0.00581505
-0.00596589
-0.0061275
-0.0063077
-0.00470961
-0.0048385
-0.00495224
-0.00505399
787.272
746.538
397.949
394.701
618.004
618.767
621.862
618.218
346.165
311.222
401.402
512.712
485.362
433.077
379.382
154.537
92.9512
98.3791
103.65
833.515
484.033
390.268
383.382
568.392
518.053
641.668
630.713
522.53
503.713
499.503
489.592
489.891
273.018
89.1111
103.685
104.891
96.0376
94.542
575.77
389.012
390.826
590.212
374.294
388.099
661.261
639.045
611.424
563.378
323.712
139.792
404.566
101.588
75.5555
81.3919
102.567
106.242
84.9027
737.122
678.099
678.082
535.176
368.961
511.607
619.134
443.095
273.881
130.918
25.8787
27.9236
91.665
80.3369
79.124
98.3013
101.832
102.435
105.053
1046.09
638.282
411.621
406.294
547.846
511.281
201.066
34.0087
25.0087
23.8832
24.7097
25.178
29.0983
77.3718
102.598
105.058
102.763
82.3763
61.7065
467.894
348.046
450.01
540.233
479.644
217.842
40.6518
35.663
40.1011
25.3023
24.284
24.7486
36.7711
113.779
110.939
99.6463
15.0934
11.5667
11.0062
39.7355
156.638
421.945
391.554
69.6482
44.709
45.2971
55.6596
64.3773
51.9258
23.7316
24.4037
75.0241
124.193
118.837
24.6467
4.06557
3.61953
5.39139
34.9726
128.661
91.6464
48.3677
50.8588
44.3696
63.4965
64.2178
64.128
36.9708
22.8039
28.2154
96.7867
132.215
60.5757
3.7771
3.26575
2.50144
2.46805
61.3119
90.2898
56.3685
59.271
50.7994
55.5861
56.5988
44.2152
16.3706
17.5599
34.4881
109.206
106.222
45.1204
3.34303
4.74468
4.95261
2.26853
2.30662
77.0228
54.4816
18.0206
14.2668
18.9932
28.787
0.539346
1.12803
1.95361
19.7295
112.836
113.249
111.13
68.2842
2.22094
2.06866
3.6703
2.06623
2.11271
50.1216
6.73522
-0.0300408
-0.235284
-0.0996918
0.102156
0.300219
0.3857
0.77872
14.8643
92.9275
119.458
116.177
110.55
3.56316
1.54511
1.7605
1.9428
1.97314
-0.450585
-0.247669
-0.135385
-0.0700189
-0.00779398
0.0782905
0.340765
0.537557
0.725851
0.76228
0.342914
74.4466
123.099
107.484
12.5845
1.40806
1.67838
1.86288
1.90602
-0.228228
-0.176983
-0.126326
-0.0646368
0.00310814
0.0930547
1.12943
1.66819
1.64676
1.04415
0.0293143
-0.0425044
7.46476
22.9848
6.4432
1.13934
1.48666
1.77353
1.95012
-0.251297
-0.180557
-0.11717
-0.0504276
0.0174294
0.0799677
0.323038
0.8701
0.631944
0.0664107
0.0309994
-0.0158106
-0.0479983
-0.00644043
0.361981
0.772534
1.11008
2.51025
5.48623
-0.223419
-0.15777
-0.0947302
-0.0324897
0.0269927
0.0776762
0.105044
0.10179
0.0862546
0.0723175
0.0492119
0.0175
0.0204349
0.0951671
0.230926
0.425426
0.640275
5.00064
10.0156
-0.186676
-0.130525
-0.0748518
-0.0204986
0.0293194
0.0692239
0.0923641
0.0966575
0.0865982
0.071403
0.0541465
0.0332023
0.0210625
0.0441722
0.0865859
0.0863757
0.136662
5.59412
9.98014
-0.154794
-0.107913
-0.0607025
-0.014854
0.0264387
0.0588812
0.0790403
0.089714
0.0833185
0.0629467
0.0430247
0.0194273
-0.00232498
-0.0179452
-0.0467682
-0.129144
-0.252144
2.09733
10.0498
-0.13033
-0.0917586
-0.0524222
-0.0143348
0.0195533
0.0461156
0.0622574
0.0686553
0.0767288
0.060708
0.0246816
-0.00473626
-0.0387312
-0.0783691
-0.137984
-0.237725
-0.368406
0.123586
10.1613
-0.112343
-0.0810415
-0.0487402
-0.0174267
0.0101819
0.0317069
0.0448662
0.0483651
0.0449861
0.055165
0.0094602
-0.0279908
-0.0680178
-0.117535
-0.183983
-0.275915
-0.386287
-0.351154
10.3541
-0.0991643
-0.0740609
-0.0478889
-0.0224299
-0.000156803
0.0170409
0.0273932
0.0297025
0.0234734
0.0216201
-0.00150134
-0.0373932
-0.0838001
-0.134225
-0.19483
-0.268702
-0.34625
-0.420465
10.7961
-0.0891033
-0.0691943
-0.0482556
-0.0278177
-0.0100813
0.00342405
0.011317
0.0125578
0.00655526
-0.00708481
-0.0207948
-0.0469937
-0.0823131
-0.126812
-0.183139
-0.239347
-0.292833
-0.333137
5.84605
-0.0808954
-0.065291
-0.0487491
-0.0325721
-0.0186593
-0.0082353
-0.00235615
-0.00185181
-0.00723551
-0.0187756
-0.0364202
-0.0576613
-0.0798377
-0.114535
-0.158579
-0.199383
-0.2354
-0.255504
0.600748
-0.073851
-0.0617507
-0.0488367
-0.0362041
-0.0254363
-0.0174861
-0.0131284
-0.0129608
-0.0173373
-0.026393
-0.039965
-0.0579198
-0.0789341
-0.103109
-0.128797
-0.153986
-0.174291
-0.173983
-0.155759
-0.0676874
-0.0583582
-0.0483599
-0.0385834
-0.0303011
-0.0242251
-0.0208917
-0.0206838
-0.0237779
-0.0301773
-0.039566
-0.0518358
-0.066269
-0.0815499
-0.0960354
-0.108167
-0.114245
-0.0959756
-0.0516794
-0.0622663
-0.0550604
-0.0473323
-0.0397695
-0.0333575
-0.0286024
-0.0258444
-0.0252886
-0.0269585
-0.0307422
-0.0363873
-0.0433137
-0.0511939
-0.0587089
-0.0641906
-0.0662026
-0.0611798
-0.0318668
0.0209632
-0.0574226
-0.0518159
-0.0458095
-0.0399027
-0.0348341
-0.0309402
-0.0284055
-0.0272978
-0.0275319
-0.0289162
-0.0311673
-0.0338234
-0.036224
-0.0373842
-0.0360292
-0.0308091
-0.0184559
0.0153317
0.0675016
-0.0529377
-0.0485499
-0.0438389
-0.0391474
-0.0350144
-0.0316434
-0.0291001
-0.0273525
-0.0262506
-0.0255653
-0.0249833
-0.0240795
-0.0222851
-0.0188269
-0.0127203
-0.00284001
0.013668
0.0479025
0.0961328
-0.0486011
-0.0451813
-0.0414623
-0.0376698
-0.0341889
-0.0311241
-0.028455
-0.0260801
-0.0238186
-0.0214413
-0.0186431
-0.0150317
-0.0101591
-0.00349298
0.00566647
0.0182343
0.0367238
0.0694895
0.112902
-0.0442791
-0.041667
-0.0387374
-0.0356352
-0.0326301
-0.0297565
-0.0269359
-0.0240211
-0.0208192
-0.017124
-0.0126769
-0.00714332
-0.000180419
0.0085631
0.0195357
0.0334353
0.0524585
0.0829406
0.121644
-0.0399405
-0.0380244
-0.0357501
-0.0332077
-0.0305807
-0.0278569
-0.0249233
-0.0216046
-0.0177032
-0.0130437
-0.00743739
-0.000632726
0.00762344
0.01756
0.0294478
0.0438216
0.0625643
0.0905883
0.125022
-0.0356373
-0.0343242
-0.0326099
-0.0305453
-0.028248
-0.0256766
-0.0227028
-0.0191397
-0.0147931
-0.00951413
-0.00317076
0.00439238
0.0133419
0.023813
0.0359835
0.0502802
0.0683503
0.0940772
0.124817
-0.0314635
-0.0306641
-0.0294336
-0.0277911
-0.025802
-0.0234069
-0.0204741
-0.0168266
-0.0122732
-0.0066865
2.00587e-05
0.00794876
0.0171514
0.0276744
0.0396946
0.0536589
0.0708442
0.0945547
0.122311
-0.0275137
-0.0271397
-0.0263258
-0.0250638
-0.0233753
-0.0211892
-0.0183844
-0.0147587
-0.0102345
-0.00459617
0.00217942
0.0101385
0.0192198
0.0294809
0.0410553
0.054424
0.0707781
0.0929094
0.118497
-0.0238571
-0.0238233
-0.0233635
-0.0224467
-0.0210578
-0.0191179
-0.016518
-0.0131082
-0.00836666
-0.00272566
0.00354938
0.0110729
0.0197905
0.0295077
0.040409
0.0530549
0.0687556
0.0899049
0.11454
-0.0205284
-0.0207546
-0.0205884
-0.0199822
-0.0188929
-0.0172375
-0.0149195
-0.0117406
-0.00715467
-0.00201221
0.0039843
0.0109725
0.0191376
0.0280707
0.0379985
0.0496905
0.0646156
0.137799
0.228756
-0.0175312
-0.017943
-0.01801
-0.0176752
-0.0168793
-0.0155418
-0.0135821
-0.0108932
-0.00677593
-0.00204592
0.0032504
0.00999396
0.0175468
0.0254735
0.0346217
0.0442335
0.0626392
0.438185
0.40315
-0.0148471
-0.0153751
-0.0156133
-0.0155028
-0.0149814
-0.0139815
-0.0124488
-0.0103078
-0.00737146
-0.003114
0.00201259
0.0100184
0.0663281
0.0928227
0.0575462
0.0365956
0.242637
0.481672
0.355522
-0.0124458
-0.0130224
-0.0133654
-0.0134214
-0.0131387
-0.0124748
-0.0114149
-0.00994627
-0.00791741
-0.00471412
0.0157055
0.0821225
0.0916016
0.096358
0.0307503
0.0966477
0.462447
0.477446
0.280928
-0.0102919
-0.010844
-0.0112133
-0.0113608
-0.011257
-0.0108948
-0.0103151
-0.00962558
-0.00877454
-0.00655843
0.00181607
0.0845392
0.0888291
0.0867282
0.0201118
0.0165223
0.264495
0.309343
0.227282
-0.00834521
-0.00877969
-0.00906856
-0.00919475
-0.00916224
-0.00901278
-0.00888445
-0.00920192
-0.0103816
-0.00961751
-0.00567123
0.0189746
0.0544268
0.0308205
0.0110583
0.00836756
0.00893219
0.0178789
0.178659
-0.0065919
-0.00680342
-0.00687532
-0.00681596
-0.00667158
-0.00655193
-0.00680043
-0.0087012
-0.0144529
-0.0160545
-0.0100976
-0.00536626
-0.00156815
0.00119102
0.00341695
0.00191568
-0.00515963
-0.00269549
0.150865
-0.0051881
-0.0051514
-0.00491644
-0.00451658
-0.00405263
-0.00373422
-0.00409391
-0.00725379
-0.0191859
-0.0181881
-0.0110579
-0.00644699
-0.00342119
-0.00123804
-8.60734e-05
-0.00210405
-0.0104462
-0.0218707
0.0853025
)
;

boundaryField
{
    leftWall
    {
        type            fixedFluxPressure;
        gradient        uniform 0;
        value           nonuniform List<scalar> 
50
(
1058.19
1059.44
1060.91
1062.64
1064.55
1066.52
1068.53
1070.55
1073.78
1078.84
1085.19
1093.53
1017.94
242.945
0.790009
0.185404
0.0985403
0.0832824
0.0726391
0.057464
0.0418372
0.0279475
0.0157625
0.00547803
-0.00272597
-0.00910866
-0.0139486
-0.0173949
-0.0196036
-0.0208351
-0.0214295
-0.0217107
-0.0219007
-0.0220909
-0.0222648
-0.0223471
-0.0222512
-0.0219109
-0.0212928
-0.0203951
-0.0192386
-0.017857
-0.0162877
-0.014566
-0.0127203
-0.0107689
-0.00871646
-0.0065481
-0.00422514
-0.00171293
)
;
    }
    rightWall
    {
        type            fixedFluxPressure;
        gradient        uniform 0;
        value           nonuniform List<scalar> 
50
(
378.545
374.669
365.382
340.986
171.585
113.535
110.85
108.501
103.65
94.542
84.9027
105.053
61.7065
11.0062
5.39139
2.46805
2.30662
2.11271
1.97314
1.90602
1.95012
5.48623
10.0156
9.98014
10.0498
10.1613
10.3541
10.7961
5.84605
0.600748
-0.155759
-0.0516794
0.0209632
0.0675016
0.0961328
0.112902
0.121644
0.125022
0.124817
0.122311
0.118497
0.11454
0.228756
0.40315
0.355522
0.280928
0.227282
0.178659
0.150865
0.0853025
)
;
    }
    lowerWall
    {
        type            fixedFluxPressure;
        gradient        uniform 0;
        value           nonuniform List<scalar> 
62
(
1058.19
1053.3
1046.25
1036.67
1024.89
1010.87
994.568
976.022
955.327
932.665
908.329
882.818
857.065
832.251
809.985
793.075
781.952
775.812
771.487
764.968
754.978
747.952
748.799
748.799
748.323
746.62
743.923
741.241
739.566
739.286
738.955
674.259
678.632
704.549
711.337
771.637
780.814
816.396
831.216
835.698
834.297
827.59
816.229
771.637
767.366
740.546
679.761
631.473
610.457
597.077
571.598
542.098
532.232
559.713
597.554
604.363
582.169
541.646
493.231
442.884
397.296
378.545
)
;
    }
    atmosphere
    {
        type            totalPressure;
        rho             rho;
        psi             none;
        gamma           1;
        p0              uniform 0;
        value           nonuniform List<scalar> 
46
(
0
0
0
0
0
0
0
0
0
0
0
0
-1.29638e-05
-9.10515e-05
-0.000266999
-0.000544137
-0.000916628
-0.00137285
-0.00189488
-0.00245821
-0.00303197
-0.00358004
-0.00406366
-0.0043434
-0.00449718
-0.0046205
-0.00470802
-0.0047848
-0.00463633
-0.00420191
-0.00350373
-0.00262111
-0.00168214
-0.000840272
-0.000235122
-1.0017e-06
0
0
0
0
0
0
0
0
0
0
)
;
    }
    defaultFaces
    {
        type            empty;
    }
}


// ************************************************************************* //
