/*--------------------------------*- C++ -*----------------------------------*\
| =========                 |                                                 |
| \\      /  F ield         | OpenFOAM: The Open Source CFD Toolbox           |
|  \\    /   O peration     | Version:  v2012                                 |
|   \\  /    A nd           | Website:  www.openfoam.com                      |
|    \\/     M anipulation  |                                                 |
\*---------------------------------------------------------------------------*/
FoamFile
{
    version     2.0;
    format      ascii;
    class       surfaceScalarField;
    location    "1";
    object      phi;
}
// * * * * * * * * * * * * * * * * * * * * * * * * * * * * * * * * * * * * * //

dimensions      [0 3 -1 0 0 0 0];
oriented        oriented;


internalField   nonuniform List<scalar> 
4432
(
-6.75818e-07
6.75818e-07
-2.9689e-06
2.29308e-06
-5.23746e-06
2.26855e-06
-7.38752e-06
2.15005e-06
-9.50817e-06
2.12065e-06
-1.15932e-05
2.08502e-06
-1.35753e-05
1.98208e-06
-1.5363e-05
1.7877e-06
-1.68623e-05
1.49938e-06
-1.79858e-05
1.12343e-06
-1.865e-05
6.64201e-07
-1.87772e-05
1.27217e-07
-1.83438e-05
-4.33397e-07
-1.74289e-05
-9.14848e-07
-1.60943e-05
-1.33463e-06
-1.4057e-05
-2.03731e-06
-1.09748e-05
-3.08222e-06
-6.68791e-06
-4.28688e-06
-1.45057e-06
-5.23735e-06
3.70745e-06
-5.15803e-06
6.61987e-06
-2.91242e-06
5.04601e-06
1.57386e-06
5.04603e-06
-2.29634e-06
2.97215e-06
-4.9284e-06
4.92512e-06
-7.40729e-06
4.74744e-06
-9.78303e-06
4.52578e-06
-1.21002e-05
4.43783e-06
-1.42898e-05
4.27462e-06
-1.62525e-05
3.94475e-06
-1.78831e-05
3.41832e-06
-1.90822e-05
2.69841e-06
-1.97751e-05
1.8164e-06
-1.99512e-05
8.40312e-07
-1.97002e-05
-1.23821e-07
-1.91293e-05
-1.00428e-06
-1.82447e-05
-1.79942e-06
-1.68885e-05
-2.6909e-06
-1.49044e-05
-4.02133e-06
-1.20907e-05
-5.89596e-06
-8.32886e-06
-8.04874e-06
-3.76753e-06
-9.79869e-06
9.23789e-07
-9.84935e-06
4.28425e-06
-6.27287e-06
4.48469e-06
1.37343e-06
9.53072e-06
-2.97397e-06
5.94611e-06
-5.46863e-06
7.41978e-06
-7.86407e-06
7.14287e-06
-1.02247e-05
6.88637e-06
-1.25177e-05
6.73089e-06
-1.46684e-05
6.42532e-06
-1.6587e-05
5.86335e-06
-1.81786e-05
5.00988e-06
-1.93497e-05
3.86954e-06
-2.00307e-05
2.49737e-06
-2.02138e-05
1.02344e-06
-1.99664e-05
-3.71248e-07
-1.93956e-05
-1.575e-06
-1.85369e-05
-2.65818e-06
-1.73135e-05
-3.91425e-06
-1.5594e-05
-5.74089e-06
-1.32027e-05
-8.2872e-06
-9.98732e-06
-1.12642e-05
-5.9206e-06
-1.38654e-05
-1.38833e-06
-1.43816e-05
2.30009e-06
-9.96126e-06
3.41592e-06
2.57589e-07
1.29467e-05
-3.17774e-06
9.12385e-06
-5.61548e-06
9.85752e-06
-7.98667e-06
9.51406e-06
-1.03475e-05
9.24717e-06
-1.2639e-05
9.02239e-06
-1.47909e-05
8.5772e-06
-1.67205e-05
7.79298e-06
-1.8334e-05
6.62334e-06
-1.95318e-05
5.06739e-06
-2.02341e-05
3.19971e-06
-2.04238e-05
1.21311e-06
-2.01703e-05
-6.24761e-07
-1.95981e-05
-2.14714e-06
-1.87978e-05
-3.4585e-06
-1.77634e-05
-4.94866e-06
-1.64099e-05
-7.09439e-06
-1.45674e-05
-1.01297e-05
-1.19855e-05
-1.3846e-05
-8.37884e-06
-1.74721e-05
-3.82457e-06
-1.89359e-05
3.83966e-07
-1.41698e-05
2.32282e-06
-1.68128e-06
1.52695e-05
-3.18361e-06
1.23075e-05
-5.62133e-06
1.22952e-05
-8.00269e-06
1.18954e-05
-1.03767e-05
1.16212e-05
-1.26852e-05
1.13309e-05
-1.48646e-05
1.07566e-05
-1.68355e-05
9.76389e-06
-1.84992e-05
8.28707e-06
-1.97431e-05
6.31123e-06
-2.04699e-05
3.92652e-06
-2.0652e-05
1.39524e-06
-2.03699e-05
-9.06857e-07
-1.9784e-05
-2.73303e-06
-1.90497e-05
-4.19284e-06
-1.82398e-05
-5.75851e-06
-1.73356e-05
-7.9986e-06
-1.61778e-05
-1.12876e-05
-1.43843e-05
-1.56395e-05
-1.13132e-05
-2.05432e-05
-6.64459e-06
-2.36045e-05
-1.76517e-06
-1.90492e-05
1.08525e-06
-4.5317e-06
1.63547e-05
-3.11242e-06
1.54199e-05
-5.55915e-06
1.4742e-05
-7.95418e-06
1.42905e-05
-1.03439e-05
1.40109e-05
-1.26803e-05
1.36673e-05
-1.49063e-05
1.29826e-05
-1.6943e-05
1.18006e-05
-1.86819e-05
1.0026e-05
-1.99901e-05
7.6195e-06
-2.07456e-05
4.68196e-06
-2.09069e-05
1.55654e-06
-2.05701e-05
-1.24363e-06
-1.99427e-05
-3.36042e-06
-1.9254e-05
-4.8815e-06
-1.86678e-05
-6.34477e-06
-1.82649e-05
-8.40148e-06
-1.79308e-05
-1.16217e-05
-1.71382e-05
-1.64321e-05
-1.47783e-05
-2.29031e-05
-9.99555e-06
-2.83873e-05
-4.34792e-06
-2.46968e-05
-4.44068e-07
-8.43554e-06
1.59107e-05
-3.00949e-06
1.84294e-05
-5.44579e-06
1.71783e-05
-7.84068e-06
1.66853e-05
-1.02408e-05
1.6411e-05
-1.26105e-05
1.6037e-05
-1.4899e-05
1.52711e-05
-1.70249e-05
1.39265e-05
-1.88651e-05
1.18662e-05
-2.02589e-05
9.01335e-06
-2.10505e-05
5.47353e-06
-2.11799e-05
1.68593e-06
-2.07603e-05
-1.66326e-06
-2.00519e-05
-4.06883e-06
-1.93626e-05
-5.57077e-06
-1.8955e-05
-6.75237e-06
-1.9056e-05
-8.30048e-06
-1.96725e-05
-1.10051e-05
-2.0149e-05
-1.59556e-05
-1.87595e-05
-2.42925e-05
-1.39161e-05
-3.32306e-05
-7.48191e-06
-3.1131e-05
-2.5229e-06
-1.33946e-05
1.33878e-05
-2.87613e-06
2.13055e-05
-5.27367e-06
1.95758e-05
-7.64549e-06
1.90572e-05
-1.00445e-05
1.881e-05
-1.2449e-05
1.84415e-05
-1.4814e-05
1.76361e-05
-1.70529e-05
1.61654e-05
-1.90235e-05
1.38368e-05
-2.05306e-05
1.05204e-05
-2.13755e-05
6.31843e-06
-2.14732e-05
1.78368e-06
-2.09534e-05
-2.18302e-06
-2.01311e-05
-4.8912e-06
-1.9388e-05
-6.31385e-06
-1.90699e-05
-7.07043e-06
-1.95892e-05
-7.78114e-06
-2.12144e-05
-9.37988e-06
-2.32422e-05
-1.39278e-05
-2.31855e-05
-2.43493e-05
-1.83123e-05
-3.81038e-05
-1.11628e-05
-3.82805e-05
-4.87275e-06
-1.96846e-05
8.51503e-06
4.44302e-06
-4.44302e-06
-6.53051e-06
1.09735e-05
-2.32762e-05
1.67457e-05
-3.80137e-05
1.47375e-05
-4.42407e-05
6.22702e-06
-4.23126e-05
-1.92814e-06
-3.81496e-05
-4.16295e-06
-3.54687e-05
-2.68086e-06
-3.3529e-05
-1.93975e-06
-2.94391e-05
-4.08985e-06
-1.93256e-05
-1.01135e-05
-5.14022e-06
-1.41854e-05
6.44849e-06
-1.15887e-05
1.33902e-05
-6.94169e-06
1.49165e-05
-1.52635e-06
1.33088e-05
1.60777e-06
1.04613e-05
2.84742e-06
6.52443e-06
3.93689e-06
6.52446e-06
-6.04831e-06
1.60528e-06
-2.14557e-05
2.63809e-05
-3.64918e-05
3.17818e-05
-4.39315e-05
2.21772e-05
-4.36328e-05
5.92838e-06
-3.90399e-05
-6.52108e-06
-3.40028e-05
-9.19996e-06
-3.09581e-05
-5.72554e-06
-2.8761e-05
-4.13686e-06
-2.45007e-05
-8.35014e-06
-1.5037e-05
-1.95773e-05
-2.97776e-06
-2.62446e-05
6.92983e-06
-2.14963e-05
1.25205e-05
-1.25324e-05
1.29932e-05
-1.99897e-06
9.90563e-06
4.6953e-06
5.86708e-06
6.88598e-06
3.4683e-06
6.33566e-06
9.99277e-06
-1.29475e-05
1.45528e-05
-2.7078e-05
4.05114e-05
-3.71528e-05
4.18566e-05
-4.13416e-05
2.6366e-05
-4.0231e-05
4.81777e-06
-3.39982e-05
-1.27539e-05
-2.75724e-05
-1.56258e-05
-2.48095e-05
-8.48841e-06
-2.35263e-05
-5.42007e-06
-1.98861e-05
-1.19903e-05
-1.03028e-05
-2.91606e-05
9.63265e-07
-3.75107e-05
9.98328e-06
-3.05163e-05
1.47636e-05
-1.73127e-05
1.40344e-05
-1.2698e-06
8.73592e-06
9.99378e-06
2.59988e-06
1.3022e-05
-7.25805e-07
9.66132e-06
9.26697e-06
-1.58369e-05
3.03897e-05
-2.7306e-05
5.19806e-05
-3.42938e-05
4.88444e-05
-3.76219e-05
2.9694e-05
-3.504e-05
2.23595e-06
-2.46933e-05
-2.31006e-05
-1.44518e-05
-2.58673e-05
-1.19469e-05
-1.09933e-05
-1.42543e-05
-3.11273e-06
-1.36751e-05
-1.25695e-05
-3.38913e-06
-3.94466e-05
7.53486e-06
-4.84347e-05
1.57679e-05
-3.87493e-05
1.97592e-05
-2.1304e-05
1.82983e-05
1.91174e-07
1.17128e-05
1.65793e-05
3.14281e-06
2.1592e-05
-3.16712e-06
1.59712e-05
6.09985e-06
-1.61423e-05
4.6532e-05
-2.4911e-05
6.07492e-05
-3.00615e-05
5.39949e-05
-3.37131e-05
3.33456e-05
-2.60148e-05
-5.46235e-06
-1.28935e-05
-3.62219e-05
3.74377e-07
-3.91352e-05
8.21298e-06
-1.88318e-05
2.13584e-06
2.96441e-06
-1.63695e-06
-8.79667e-06
7.53521e-06
-4.86188e-05
1.69193e-05
-5.78187e-05
2.42313e-05
-4.60613e-05
2.70724e-05
-2.41451e-05
2.51371e-05
2.12641e-06
1.93581e-05
2.23582e-05
1.21359e-05
2.88143e-05
2.58658e-06
2.55206e-05
8.68646e-06
-1.53154e-05
6.18474e-05
-2.15753e-05
6.70091e-05
-2.59579e-05
5.83775e-05
-2.78176e-05
3.52053e-05
-1.77301e-05
-1.55499e-05
-9.63357e-06
-4.43184e-05
1.69335e-07
-4.89381e-05
1.39398e-05
-3.26022e-05
1.34217e-05
3.48248e-06
1.05971e-05
-5.97197e-06
1.54835e-05
-5.35052e-05
2.32536e-05
-6.55889e-05
3.13948e-05
-5.42024e-05
3.52261e-05
-2.79764e-05
3.37194e-05
3.63312e-06
2.92491e-05
2.68286e-05
2.41306e-05
3.39328e-05
1.01154e-05
3.95357e-05
1.88018e-05
-1.44462e-05
7.62936e-05
-1.83363e-05
7.08992e-05
-2.29127e-05
6.29539e-05
-2.1716e-05
3.40086e-05
-1.35077e-05
-2.37581e-05
-7.65413e-06
-5.0172e-05
-9.3514e-07
-5.56571e-05
9.35568e-06
-4.2893e-05
1.59449e-05
-3.10675e-06
1.8551e-05
-8.57807e-06
2.10028e-05
-5.5957e-05
2.72167e-05
-7.18028e-05
3.53229e-05
-6.23087e-05
4.17506e-05
-3.44041e-05
4.4102e-05
1.28172e-06
3.92639e-05
3.16668e-05
2.78119e-05
4.53847e-05
1.49625e-05
5.23852e-05
3.37641e-05
-1.4414e-05
9.07076e-05
-1.58704e-05
7.23556e-05
-1.95495e-05
6.6633e-05
-1.54334e-05
2.98925e-05
-9.84207e-06
-2.93494e-05
-6.02563e-06
-5.39885e-05
-1.76786e-06
-5.99148e-05
4.82514e-06
-4.9486e-05
1.49537e-05
-1.32353e-05
2.22719e-05
-1.58963e-05
2.47439e-05
-5.8429e-05
2.94704e-05
-7.65293e-05
3.66326e-05
-6.94708e-05
4.33211e-05
-4.10926e-05
4.86639e-05
-4.06107e-06
4.60099e-05
3.43207e-05
3.19695e-05
5.94251e-05
1.89194e-05
6.54355e-05
5.26835e-05
-5.45953e-06
2.67651e-05
-1.0397e-05
2.45133e-05
-1.52908e-05
2.3951e-05
-2.03472e-05
2.38664e-05
-2.55887e-05
2.3683e-05
-3.09377e-05
2.29852e-05
-3.61882e-05
2.14159e-05
-4.09678e-05
1.86164e-05
-4.47326e-05
1.42851e-05
-4.6883e-05
8.46887e-06
-4.71222e-05
2.0229e-06
-4.58073e-05
-3.49796e-06
-4.3746e-05
-6.95252e-06
-4.18489e-05
-8.21091e-06
-4.10219e-05
-7.89737e-06
-4.28588e-05
-5.9443e-06
-4.92605e-05
-2.97816e-06
-6.01109e-05
-3.0774e-06
-6.59776e-05
-1.84826e-05
-5.49785e-05
-4.91029e-05
-3.8391e-05
-5.4868e-05
-2.22105e-05
-3.58651e-05
-9.68714e-06
-4.00833e-06
-4.16226e-06
3.09273e-05
-8.46556e-06
2.88166e-05
-1.2986e-05
2.84714e-05
-1.79606e-05
2.88411e-05
-2.34991e-05
2.92215e-05
-2.95777e-05
2.90637e-05
-3.5991e-05
2.78292e-05
-4.23047e-05
2.49301e-05
-4.77912e-05
1.97716e-05
-5.14931e-05
1.21707e-05
-5.28254e-05
3.35526e-06
-5.23265e-05
-3.9969e-06
-5.06339e-05
-8.64512e-06
-4.88018e-05
-1.0043e-05
-4.60004e-05
-1.06987e-05
-4.41328e-05
-7.81195e-06
-5.25481e-05
5.43715e-06
-7.61236e-05
2.04981e-05
-9.1055e-05
-3.55112e-06
-8.02508e-05
-5.99071e-05
-6.90916e-05
-6.60272e-05
-6.18305e-05
-4.31263e-05
-1.02976e-05
-6.122e-05
-2.06153e-06
3.29888e-05
-5.32734e-06
3.20824e-05
-9.13579e-06
3.22798e-05
-1.38721e-05
3.35774e-05
-1.9731e-05
3.50804e-05
-2.67905e-05
3.61232e-05
-3.49166e-05
3.59554e-05
-4.37326e-05
3.37461e-05
-5.24678e-05
2.85068e-05
-5.98187e-05
1.95216e-05
-6.48227e-05
8.35931e-06
-6.81875e-05
-6.32145e-07
-6.92247e-05
-7.60783e-06
-6.51857e-05
-1.40821e-05
-5.82011e-05
-1.76833e-05
-5.10539e-05
-1.49592e-05
-5.53217e-05
9.70499e-06
-7.60268e-05
4.12032e-05
-9.81439e-05
1.85661e-05
-9.8285e-05
-5.97661e-05
-9.7292e-05
-6.70202e-05
-9.82752e-05
-4.21432e-05
-8.02776e-06
-0.000100545
8.08266e-07
3.21806e-05
-7.40445e-07
3.36311e-05
-3.42037e-06
3.49598e-05
-7.68831e-06
3.78453e-05
-1.37844e-05
4.11765e-05
-2.18593e-05
4.41982e-05
-3.20169e-05
4.6113e-05
-4.44231e-05
4.61523e-05
-5.9059e-05
4.31427e-05
-7.47318e-05
3.51944e-05
-8.87039e-05
2.23314e-05
-0.000101748
1.24117e-05
-0.000118655
9.29945e-06
-0.00013037
-2.36723e-06
-0.000124006
-2.40469e-05
-0.000103005
-3.596e-05
-7.83876e-05
-1.49126e-05
-6.51257e-05
2.79412e-05
-7.7666e-05
3.11063e-05
-0.000101445
-3.59877e-05
-0.000105172
-6.32929e-05
-0.000103273
-4.40421e-05
-1.42442e-05
-9.70565e-05
3.90629e-06
2.82743e-05
4.70703e-06
3.28303e-05
3.30992e-06
3.63569e-05
-4.77405e-07
4.16326e-05
-6.61328e-06
4.73123e-05
-1.59117e-05
5.34965e-05
-2.86726e-05
5.88739e-05
-4.58224e-05
6.33021e-05
-6.9592e-05
6.69123e-05
-0.000103889
6.94912e-05
-0.000143335
6.17772e-05
-0.000172566
4.16431e-05
-0.00018414
2.08735e-05
-0.000181214
-5.29356e-06
-0.000172161
-3.30992e-05
-0.000157285
-5.08366e-05
-0.000124955
-4.72425e-05
-8.17795e-05
-1.52341e-05
-6.0587e-05
9.91388e-06
-8.32181e-05
-1.33565e-05
-0.000103828
-4.26831e-05
-9.43861e-05
-5.3484e-05
-2.69838e-05
-8.16465e-05
4.64584e-06
2.36284e-05
8.10187e-06
2.93743e-05
7.61279e-06
3.6846e-05
3.63248e-06
4.56129e-05
-5.0255e-06
5.59703e-05
-2.10775e-05
6.95485e-05
-4.80337e-05
8.58302e-05
-8.87151e-05
0.000103984
-0.000137207
0.000115404
-0.000179445
0.000111729
-0.000200942
8.32745e-05
-0.000203858
4.45588e-05
-0.000202367
1.93822e-05
-0.000198438
-9.22188e-06
-0.000193283
-3.82545e-05
-0.000186873
-5.72468e-05
-0.000171189
-6.29263e-05
-0.000133114
-5.33095e-05
-9.02945e-05
-3.29054e-05
-7.56257e-05
-2.80252e-05
-8.39993e-05
-3.43095e-05
-9.72213e-05
-4.0262e-05
-4.16412e-05
-8.25639e-05
-1.23381e-06
2.48623e-05
1.00871e-06
2.71318e-05
-3.77624e-06
4.16308e-05
-1.52189e-05
5.70557e-05
-3.47222e-05
7.54736e-05
-6.18804e-05
9.67069e-05
-9.41138e-05
0.000118064
-0.000126677
0.000136546
-0.000155293
0.000144021
-0.000174796
0.000131233
-0.000184715
9.31928e-05
-0.000187834
4.76781e-05
-0.000188854
2.04024e-05
-0.000190391
-7.68489e-06
-0.00019347
-3.51753e-05
-0.000196255
-5.44618e-05
-0.000192207
-6.69742e-05
-0.000177082
-6.84348e-05
-0.000147299
-6.26889e-05
-0.000115794
-5.95304e-05
-9.9384e-05
-5.07192e-05
-8.91828e-05
-5.04632e-05
-4.27124e-05
-8.81116e-05
-8.86329e-06
3.37253e-05
-2.07661e-05
3.9035e-05
-3.2846e-05
5.37108e-05
-4.60682e-05
7.02778e-05
-5.98362e-05
8.92414e-05
-7.3953e-05
0.000110824
-8.87762e-05
0.000132887
-0.000102313
0.000150083
-0.000113236
0.000154944
-0.00012254
0.000140537
-0.000133732
0.000104384
-0.000147178
6.11241e-05
-0.000155508
2.87322e-05
-0.00016414
9.47787e-07
-0.000179243
-2.00725e-05
-0.000192292
-4.14128e-05
-0.000192441
-6.68252e-05
-0.000185988
-7.48884e-05
-0.000171202
-7.74743e-05
-0.000154852
-7.58804e-05
-0.000134333
-7.1238e-05
-0.000118027
-6.67698e-05
-5.21881e-05
-0.000108551
-1.53041e-05
4.90291e-05
-2.985e-05
5.35808e-05
-4.21036e-05
6.59645e-05
-5.20625e-05
8.02366e-05
-5.92397e-05
9.64186e-05
-6.31453e-05
0.000114729
-6.40401e-05
0.000133781
-6.29051e-05
0.000148948
-6.16306e-05
0.00015367
-6.34133e-05
0.00014232
-7.281e-05
0.000113781
-8.96391e-05
7.79533e-05
-0.000108131
4.72236e-05
-0.000129295
2.21125e-05
-0.000150557
1.18919e-06
-0.000165861
-2.61091e-05
-0.000177898
-5.47886e-05
-0.000176175
-7.66107e-05
-0.000169378
-8.42714e-05
-0.000157848
-8.74107e-05
-0.000143386
-8.57002e-05
-0.000129974
-8.01813e-05
-6.82875e-05
-0.000113875
-1.43087e-05
6.33378e-05
-2.77142e-05
6.69863e-05
-3.72872e-05
7.55375e-05
-4.33795e-05
8.63288e-05
-4.58284e-05
9.88678e-05
-4.41166e-05
0.000113017
-3.81528e-05
0.000127818
-2.93558e-05
0.000140151
-2.07967e-05
0.000145111
-1.67818e-05
0.000138305
-2.17226e-05
0.000118722
-3.55887e-05
9.18192e-05
-5.35847e-05
6.52195e-05
-7.29827e-05
4.15104e-05
-9.15996e-05
1.9806e-05
-0.000113255
-4.45334e-06
-0.000136163
-3.1881e-05
-0.000152787
-5.99863e-05
-0.00015689
-8.0169e-05
-0.000149828
-9.4473e-05
-0.000140819
-9.47085e-05
-0.000128546
-9.24546e-05
-8.24479e-05
-0.000114386
-1.00834e-05
7.3421e-05
-1.97819e-05
7.66848e-05
-2.63719e-05
8.21273e-05
-2.9648e-05
8.96047e-05
-2.94068e-05
9.86266e-05
-2.52353e-05
0.000108846
-1.69642e-05
0.000119547
-5.56723e-06
0.000128754
6.28125e-06
0.000133262
1.46372e-05
0.000129949
1.56514e-05
0.000117708
8.56258e-06
9.89079e-05
-3.86785e-06
7.76498e-05
-1.8654e-05
5.62967e-05
-3.40761e-05
3.5228e-05
-5.15063e-05
1.29767e-05
-7.25728e-05
-1.08145e-05
-9.81231e-05
-3.44361e-05
-0.000121213
-5.70788e-05
-0.000136212
-7.94743e-05
-0.000135326
-9.55948e-05
-0.000127909
-9.9871e-05
-9.80983e-05
-0.000112259
-5.527e-06
7.89479e-05
-1.12487e-05
8.24065e-05
-1.49027e-05
8.57811e-05
-1.59568e-05
9.06587e-05
-1.41044e-05
9.67739e-05
-8.99266e-06
0.000103734
-4.29491e-07
0.000110983
1.10079e-05
0.000117316
2.35147e-05
0.000120755
3.42189e-05
0.000119245
4.01676e-05
0.000111759
4.00419e-05
9.90333e-05
3.47257e-05
8.29659e-05
2.59506e-05
6.50717e-05
1.50927e-05
4.60859e-05
2.05251e-06
2.60168e-05
-1.39758e-05
5.21375e-06
-3.31196e-05
-1.52922e-05
-5.51299e-05
-3.50685e-05
-8.06356e-05
-5.39685e-05
-0.000103241
-7.29897e-05
-0.000111981
-9.11309e-05
-0.000105455
-0.000104624
-1.77915e-06
8.0727e-05
-4.22107e-06
8.48481e-05
-5.26345e-06
8.68235e-05
-4.4309e-06
8.9826e-05
-1.39454e-06
9.37374e-05
4.1295e-06
9.82101e-05
1.23148e-05
0.000102798
2.28829e-05
0.000106748
3.47547e-05
0.000108884
4.60889e-05
0.000107911
5.4849e-05
0.000102998
5.97055e-05
9.41767e-05
6.04926e-05
8.21786e-05
5.77654e-05
6.77989e-05
5.22e-05
5.1651e-05
4.40588e-05
3.4158e-05
3.33964e-05
1.58763e-05
2.05311e-05
-2.4269e-06
5.89146e-06
-2.04288e-05
-9.62974e-06
-3.84474e-05
-2.53636e-05
-5.72561e-05
-4.04038e-05
-7.60909e-05
-9.11266e-05
-5.47324e-05
9.23993e-07
7.98031e-05
9.00329e-07
8.48718e-05
1.9392e-06
8.57848e-05
4.31484e-06
8.745e-05
8.28434e-06
8.97678e-05
1.40705e-05
9.24239e-05
2.1807e-05
9.5061e-05
3.13708e-05
9.71842e-05
4.21667e-05
9.8088e-05
5.31062e-05
9.69712e-05
6.28815e-05
9.32228e-05
7.04151e-05
8.66431e-05
7.51626e-05
7.74309e-05
7.70153e-05
6.5946e-05
7.60862e-05
5.25799e-05
7.25035e-05
3.77405e-05
6.64553e-05
2.19244e-05
5.83491e-05
5.67916e-06
4.85629e-05
-1.06427e-05
3.73002e-05
-2.71848e-05
2.41896e-05
-4.41457e-05
9.04615e-06
-6.09474e-05
-7.50241e-05
-7.05632e-06
2.55451e-06
7.72485e-05
4.31338e-06
8.31131e-05
6.87421e-06
8.32238e-05
1.04076e-05
8.39163e-05
1.50858e-05
8.50899e-05
2.10576e-05
8.64519e-05
2.84167e-05
8.77016e-05
3.711e-05
8.84909e-05
4.68177e-05
8.83805e-05
5.69146e-05
8.68742e-05
6.65882e-05
8.35488e-05
7.50563e-05
7.81747e-05
8.17428e-05
7.07444e-05
8.62936e-05
6.13952e-05
8.85234e-05
5.03502e-05
8.8361e-05
3.79028e-05
8.58655e-05
2.44198e-05
8.1247e-05
1.02974e-05
7.47469e-05
-4.14283e-06
6.63379e-05
-1.8776e-05
5.56936e-05
-3.35016e-05
4.25218e-05
-4.77759e-05
-6.00006e-05
2.7498e-05
3.40341e-06
7.3845e-05
6.4164e-06
8.01003e-05
1.00054e-05
7.96344e-05
1.43186e-05
7.96029e-05
1.94641e-05
7.99447e-05
2.55302e-05
8.03857e-05
3.25689e-05
8.06629e-05
4.05484e-05
8.05115e-05
4.92884e-05
7.96404e-05
5.84259e-05
7.77364e-05
6.74575e-05
7.45171e-05
7.584e-05
6.97921e-05
8.30902e-05
6.34942e-05
8.88231e-05
5.56623e-05
9.2755e-05
4.64183e-05
9.4702e-05
3.59557e-05
9.45912e-05
2.45304e-05
9.24588e-05
1.24297e-05
8.83867e-05
-7.09057e-08
8.23385e-05
-1.27278e-05
7.412e-05
-2.52833e-05
6.35618e-05
-3.72178e-05
-4.7515e-05
5.10763e-05
3.81987e-06
7.00253e-05
7.62209e-06
7.62981e-05
1.18427e-05
7.54136e-05
1.66085e-05
7.48373e-05
2.19909e-05
7.45622e-05
2.80373e-05
7.4339e-05
3.47646e-05
7.39359e-05
4.21389e-05
7.31375e-05
5.00442e-05
7.1735e-05
5.82582e-05
6.95222e-05
6.64618e-05
6.63133e-05
7.42833e-05
6.19706e-05
8.13517e-05
5.64258e-05
8.73322e-05
4.96816e-05
9.19437e-05
4.18066e-05
9.49711e-05
3.29282e-05
9.62762e-05
2.3225e-05
9.57957e-05
1.291e-05
9.35082e-05
2.21645e-06
8.93727e-05
-8.59258e-06
8.32878e-05
-1.91985e-05
7.51885e-05
-2.91187e-05
-3.76092e-05
6.52824e-05
4.00492e-06
6.60206e-05
8.24963e-06
7.20532e-05
1.28043e-05
7.08589e-05
1.77691e-05
6.98727e-05
2.31967e-05
6.91344e-05
2.91114e-05
6.84243e-05
3.55065e-05
6.7541e-05
4.23404e-05
6.63037e-05
4.95245e-05
6.4551e-05
5.69086e-05
6.21381e-05
6.42811e-05
5.89408e-05
7.13856e-05
5.48661e-05
7.79486e-05
4.98627e-05
8.37038e-05
4.39263e-05
8.84104e-05
3.70998e-05
9.18668e-05
2.94716e-05
9.39202e-05
2.11715e-05
9.44661e-05
1.23638e-05
9.3436e-05
3.24637e-06
9.07761e-05
-5.93281e-06
8.643e-05
-1.48525e-05
8.03825e-05
-2.30713e-05
-2.99797e-05
7.27529e-05
4.05076e-06
6.19699e-05
8.50163e-06
6.76021e-05
1.3183e-05
6.61775e-05
1.81689e-05
6.4887e-05
2.35014e-05
6.38016e-05
2.91942e-05
6.27316e-05
3.52294e-05
6.15058e-05
4.15609e-05
5.99722e-05
4.81119e-05
5.8e-05
5.47697e-05
5.54802e-05
6.13844e-05
5.23261e-05
6.77743e-05
4.8476e-05
7.37397e-05
4.38971e-05
7.90774e-05
3.85885e-05
8.35944e-05
3.25827e-05
8.71193e-05
2.59466e-05
8.95101e-05
1.87805e-05
9.06563e-05
1.12175e-05
9.0475e-05
3.42758e-06
8.89064e-05
-4.36448e-06
8.5913e-05
-1.18593e-05
8.14996e-05
-1.8658e-05
-2.42363e-05
7.5756e-05
4.00289e-06
5.79667e-05
8.50269e-06
6.31022e-05
1.31732e-05
6.15068e-05
1.80638e-05
5.99965e-05
2.32093e-05
5.8656e-05
2.86186e-05
5.73224e-05
3.42721e-05
5.58522e-05
4.01248e-05
5.41194e-05
4.61082e-05
5.20166e-05
5.21308e-05
4.94576e-05
5.80785e-05
4.63783e-05
6.38173e-05
4.2737e-05
6.91997e-05
3.85146e-05
7.40723e-05
3.37158e-05
7.82851e-05
2.83699e-05
8.16994e-05
2.25323e-05
8.41941e-05
1.62858e-05
8.56681e-05
9.74329e-06
8.60414e-05
3.05408e-06
8.52571e-05
-3.58039e-06
8.32874e-05
-9.88984e-06
8.01476e-05
-1.55184e-05
-2.00096e-05
7.59206e-05
3.89291e-06
5.40736e-05
8.33749e-06
5.86573e-05
1.29077e-05
5.69366e-05
1.763e-05
5.52742e-05
2.25325e-05
5.37535e-05
2.76224e-05
5.22324e-05
3.28831e-05
5.05914e-05
3.8275e-05
4.87274e-05
4.37386e-05
4.6553e-05
4.91973e-05
4.3999e-05
5.45598e-05
4.10157e-05
5.97228e-05
3.75738e-05
6.4574e-05
3.36631e-05
6.8997e-05
2.92927e-05
7.2876e-05
2.44909e-05
7.61014e-05
1.93068e-05
7.85742e-05
1.38129e-05
8.02088e-05
8.10843e-06
8.09359e-05
2.32681e-06
8.07065e-05
-3.35123e-06
7.95015e-05
-8.68502e-06
7.73431e-05
-1.33602e-05
-1.69806e-05
7.4314e-05
3.74894e-06
5.03246e-05
8.07032e-06
5.43357e-05
1.24816e-05
5.25257e-05
1.69896e-05
5.07659e-05
2.16169e-05
4.91263e-05
2.63703e-05
4.7479e-05
3.12374e-05
4.57241e-05
3.61861e-05
4.37785e-05
4.11668e-05
4.15723e-05
4.61156e-05
3.90502e-05
5.09579e-05
3.61734e-05
5.56111e-05
3.29205e-05
5.99875e-05
2.92866e-05
6.39967e-05
2.52834e-05
6.75489e-05
2.09387e-05
7.05578e-05
1.62978e-05
7.29446e-05
1.1426e-05
7.46398e-05
6.41302e-06
7.55868e-05
1.37958e-06
7.57473e-05
-3.5119e-06
7.51104e-05
-8.04826e-06
7.37038e-05
-1.19537e-05
-1.48866e-05
7.16097e-05
3.59397e-06
4.67306e-05
7.74947e-06
5.01802e-05
1.19622e-05
4.83131e-05
1.6227e-05
4.65009e-05
2.05617e-05
4.47915e-05
2.49734e-05
4.30674e-05
2.94538e-05
4.12436e-05
3.39786e-05
3.92538e-05
3.85076e-05
3.70433e-05
4.29887e-05
3.45691e-05
4.73608e-05
3.18013e-05
5.1557e-05
2.87243e-05
5.55071e-05
2.53366e-05
5.91394e-05
2.16511e-05
6.23834e-05
1.76947e-05
6.51712e-05
1.35098e-05
6.74405e-05
9.15664e-06
6.91362e-05
4.71712e-06
7.02144e-05
3.01273e-07
7.06473e-05
-3.94485e-06
7.04316e-05
-7.83273e-06
6.95992e-05
-1.11214e-05
-1.35178e-05
6.82303e-05
3.44142e-06
4.32891e-05
7.40561e-06
4.62161e-05
1.13937e-05
4.43249e-05
1.5397e-05
4.24972e-05
1.94312e-05
4.07572e-05
2.35037e-05
3.89948e-05
2.761e-05
3.71374e-05
3.17317e-05
3.51322e-05
3.58377e-05
3.29373e-05
3.98863e-05
3.05204e-05
4.3828e-05
2.78596e-05
4.76085e-05
2.49438e-05
5.1171e-05
2.17741e-05
5.44582e-05
1.83639e-05
5.74139e-05
1.47391e-05
5.99843e-05
1.09393e-05
6.21205e-05
7.0204e-06
6.37796e-05
3.0579e-06
6.49286e-05
-8.47785e-07
6.55491e-05
-4.56542e-06
6.56446e-05
-7.92829e-06
6.52493e-05
-1.07263e-05
-1.27092e-05
6.44405e-05
3.29376e-06
3.99952e-05
7.05217e-06
4.24577e-05
1.07995e-05
4.05771e-05
1.45317e-05
3.87648e-05
1.82642e-05
3.70244e-05
2.20054e-05
3.52534e-05
2.57533e-05
3.33896e-05
2.94945e-05
3.1391e-05
3.32052e-05
2.92265e-05
3.68527e-05
2.68729e-05
4.03976e-05
2.43147e-05
4.3796e-05
2.15453e-05
4.70023e-05
1.85678e-05
4.99702e-05
1.53959e-05
5.2655e-05
1.20542e-05
5.5014e-05
8.58011e-06
5.70088e-05
5.02547e-06
5.86066e-05
1.46e-06
5.97832e-05
-2.02451e-06
6.05284e-05
-5.31061e-06
6.08504e-05
-8.25039e-06
6.07849e-05
-1.0661e-05
-1.2329e-05
6.04046e-05
3.14554e-06
3.68497e-05
6.68964e-06
3.89135e-05
1.01884e-05
3.70779e-05
1.36465e-05
3.53066e-05
1.70818e-05
3.3589e-05
2.05033e-05
3.18317e-05
2.39109e-05
2.99819e-05
2.7295e-05
2.80068e-05
3.06376e-05
2.58838e-05
3.39134e-05
2.3597e-05
3.70913e-05
2.11366e-05
4.01368e-05
1.84997e-05
4.30131e-05
1.56913e-05
4.56836e-05
1.27252e-05
4.81123e-05
9.62523e-06
5.02659e-05
6.42637e-06
5.21142e-05
3.17699e-06
5.36326e-05
-5.84467e-08
5.48044e-05
-3.1964e-06
5.56251e-05
-6.13134e-06
5.61067e-05
-8.73198e-06
5.62845e-05
-1.08389e-05
-1.22701e-05
5.62255e-05
2.9885e-06
3.38612e-05
6.3123e-06
3.55894e-05
9.56032e-06
3.38298e-05
1.27473e-05
3.21196e-05
1.58939e-05
3.04422e-05
1.90102e-05
2.87154e-05
2.2097e-05
2.68951e-05
2.51477e-05
2.49562e-05
2.81486e-05
2.28829e-05
3.10806e-05
2.06651e-05
3.39195e-05
1.82977e-05
3.66384e-05
1.57808e-05
3.92083e-05
1.31212e-05
4.16004e-05
1.03329e-05
4.37865e-05
7.43903e-06
4.57403e-05
4.47248e-06
4.74388e-05
1.47842e-06
4.88639e-05
-1.4835e-06
5.00049e-05
-4.3374e-06
5.08616e-05
-6.98798e-06
5.14479e-05
-9.31835e-06
5.17979e-05
-1.11889e-05
-1.24438e-05
5.19715e-05
2.81625e-06
3.10449e-05
5.91439e-06
3.2491e-05
8.91335e-06
3.08308e-05
1.18361e-05
2.91967e-05
1.47057e-05
2.75725e-05
1.75326e-05
2.58884e-05
2.03187e-05
2.41091e-05
2.30591e-05
2.22157e-05
2.5744e-05
2.01981e-05
2.83587e-05
1.80505e-05
3.08849e-05
1.57714e-05
3.33019e-05
1.33637e-05
3.55875e-05
1.08354e-05
3.77191e-05
8.20118e-06
3.96749e-05
5.4831e-06
4.14349e-05
2.7125e-06
4.29817e-05
-6.83064e-08
4.43027e-05
-2.80436e-06
4.53917e-05
-5.42632e-06
4.62515e-05
-7.84785e-06
4.68973e-05
-9.96415e-06
4.73605e-05
-1.16522e-05
-1.2777e-05
4.76937e-05
2.62662e-06
2.8418e-05
5.49399e-06
2.96234e-05
8.24764e-06
2.80771e-05
1.09153e-05
2.65288e-05
1.35209e-05
2.49667e-05
1.60749e-05
2.33344e-05
1.85796e-05
2.16043e-05
2.10322e-05
1.97633e-05
2.34251e-05
1.78052e-05
2.57477e-05
1.57279e-05
2.79862e-05
1.35328e-05
3.0125e-05
1.12247e-05
3.21472e-05
8.81302e-06
3.40357e-05
6.31257e-06
3.57738e-05
3.74493e-06
3.73465e-05
1.13984e-06
3.87413e-05
-1.46297e-06
3.99499e-05
-4.01288e-06
4.09697e-05
-6.44613e-06
4.18059e-05
-8.684e-06
4.24736e-05
-1.06318e-05
4.30015e-05
-1.218e-05
-1.32106e-05
4.3435e-05
2.42175e-06
2.59961e-05
5.05408e-06
2.69911e-05
7.56708e-06
2.5564e-05
9.98932e-06
2.41063e-05
1.23439e-05
2.26121e-05
1.46408e-05
2.10374e-05
1.68828e-05
1.93622e-05
1.90682e-05
1.75779e-05
2.11919e-05
1.56815e-05
2.3246e-05
1.36738e-05
2.52206e-05
1.15582e-05
2.71038e-05
9.3413e-06
2.88832e-05
7.03354e-06
3.05457e-05
4.65001e-06
3.20789e-05
2.21172e-06
3.34718e-05
-2.52981e-07
3.47159e-05
-2.70703e-06
3.58066e-05
-5.1035e-06
3.6744e-05
-7.38349e-06
3.75347e-05
-9.4747e-06
3.81938e-05
-1.12909e-05
3.87472e-05
-1.27333e-05
-1.36975e-05
3.9234e-05
2.20669e-06
2.37894e-05
4.60154e-06
2.45963e-05
6.87881e-06
2.32866e-05
9.06478e-06
2.19202e-05
1.11803e-05
2.04965e-05
1.32348e-05
1.8983e-05
1.52311e-05
1.73659e-05
1.71687e-05
1.56403e-05
1.90442e-05
1.38061e-05
2.0852e-05
1.18659e-05
2.2585e-05
9.82515e-06
2.42346e-05
7.69174e-06
2.57911e-05
5.47706e-06
2.72447e-05
3.19644e-06
2.85862e-05
8.70252e-07
2.98079e-05
-1.47458e-06
3.09046e-05
-3.80362e-06
3.18744e-05
-6.07321e-06
3.27196e-05
-8.22862e-06
3.34479e-05
-1.0203e-05
3.40742e-05
-1.19172e-05
3.46221e-05
-1.32812e-05
-1.42011e-05
3.51257e-05
1.98751e-06
2.1802e-05
4.14488e-06
2.24389e-05
6.19132e-06
2.12401e-05
8.14918e-06
1.99624e-05
1.00366e-05
1.86092e-05
1.18618e-05
1.71578e-05
1.36281e-05
1.55996e-05
1.53356e-05
1.39328e-05
1.69823e-05
1.21593e-05
1.85646e-05
1.02836e-05
2.00774e-05
8.31239e-06
2.15141e-05
6.25512e-06
2.28673e-05
4.12408e-06
2.41291e-05
1.93477e-06
2.52927e-05
-2.93147e-07
2.63527e-05
-2.53455e-06
2.73067e-05
-4.75753e-06
2.81549e-05
-6.92136e-06
2.89013e-05
-8.97505e-06
2.95547e-05
-1.08565e-05
3.01298e-05
-1.24922e-05
3.06484e-05
-1.37998e-05
-1.46937e-05
3.1141e-05
1.76956e-06
2.00325e-05
3.69194e-06
2.05165e-05
5.51256e-06
1.94195e-05
7.24977e-06
1.82253e-05
8.91885e-06
1.69402e-05
1.05271e-05
1.55496e-05
1.20777e-05
1.4049e-05
1.35715e-05
1.2439e-05
1.50076e-05
1.07232e-05
1.63838e-05
8.90738e-06
1.76965e-05
6.99976e-06
1.89404e-05
5.01131e-06
2.01091e-05
2.95555e-06
2.11959e-05
8.48152e-07
2.21952e-05
-1.29237e-06
2.31038e-05
-3.44311e-06
2.3921e-05
-5.5747e-06
2.46488e-05
-7.64927e-06
2.52928e-05
-9.61917e-06
2.58627e-05
-1.14264e-05
2.63731e-05
-1.30026e-05
2.68447e-05
-1.42714e-05
-1.51545e-05
2.73057e-05
1.5564e-06
1.84761e-05
3.24837e-06
1.88246e-05
4.8489e-06
1.7819e-05
6.37312e-06
1.67012e-05
7.83365e-06
1.54797e-05
9.23668e-06
1.41465e-05
1.05852e-05
1.27004e-05
1.18803e-05
1.11438e-05
1.31224e-05
9.48107e-06
1.43104e-05
7.71932e-06
1.54418e-05
5.86837e-06
1.6512e-05
3.94123e-06
1.75144e-05
1.95329e-06
1.84422e-05
-7.95942e-08
1.92907e-05
-2.14085e-06
2.00579e-05
-4.21042e-06
2.07448e-05
-6.26172e-06
2.13551e-05
-8.25971e-06
2.18957e-05
-1.01598e-05
2.23768e-05
-1.19075e-05
2.28133e-05
-1.34392e-05
2.32255e-05
-1.46836e-05
-1.55686e-05
2.36397e-05
1.34943e-06
1.71267e-05
2.81759e-06
1.73564e-05
4.2055e-06
1.6431e-05
5.52572e-06
1.5381e-05
6.78823e-06
1.42172e-05
7.99785e-06
1.29368e-05
9.15714e-06
1.15411e-05
1.02678e-05
1.0033e-05
1.13309e-05
8.41783e-06
1.23468e-05
6.70327e-06
1.33142e-05
4.90102e-06
1.42283e-05
3.02713e-06
1.50812e-05
1.1004e-06
1.58647e-05
-8.63219e-07
1.65745e-05
-2.85068e-06
1.72097e-05
-4.84581e-06
1.77731e-05
-6.82521e-06
1.82697e-05
-8.75651e-06
1.87077e-05
-1.05978e-05
1.90979e-05
-1.22977e-05
1.94552e-05
-1.37965e-05
1.97997e-05
-1.50279e-05
-1.59253e-05
2.01564e-05
1.14884e-06
1.59778e-05
2.4023e-06
1.61029e-05
3.5881e-06
1.52452e-05
4.71579e-06
1.42533e-05
5.79232e-06
1.31406e-05
6.82088e-06
1.19083e-05
7.80352e-06
1.05584e-05
8.74229e-06
9.09417e-06
9.63952e-06
7.52048e-06
1.04972e-05
5.84547e-06
1.13154e-05
4.08275e-06
1.20893e-05
2.25318e-06
1.28076e-05
3.82009e-07
1.34592e-05
-1.51493e-06
1.40398e-05
-3.43145e-06
1.45507e-05
-5.35689e-06
1.49966e-05
-7.2712e-06
1.53842e-05
-9.1442e-06
1.57223e-05
-1.09359e-05
1.60221e-05
-1.25976e-05
1.62984e-05
-1.40728e-05
1.65705e-05
-1.53e-05
-1.62176e-05
1.68627e-05
9.55316e-07
1.50225e-05
2.00716e-06
1.5051e-05
3.00559e-06
1.42468e-05
3.95544e-06
1.33035e-05
4.85999e-06
1.22362e-05
5.72063e-06
1.10477e-05
6.53881e-06
9.74024e-06
7.31696e-06
8.31598e-06
8.05875e-06
6.7786e-06
8.76856e-06
5.13554e-06
9.44911e-06
3.40209e-06
1.00958e-05
1.60635e-06
1.06912e-05
-2.13443e-07
1.12186e-05
-2.04252e-06
1.16757e-05
-3.8886e-06
1.20672e-05
-5.74858e-06
1.24008e-05
-7.60489e-06
1.26846e-05
-9.42809e-06
1.29276e-05
-1.1179e-05
1.31406e-05
-1.28105e-05
1.33373e-05
-1.42695e-05
1.35358e-05
-1.54985e-05
-1.64413e-05
1.37595e-05
7.7262e-07
1.42498e-05
1.64189e-06
1.41816e-05
2.47275e-06
1.34159e-05
3.26287e-06
1.25134e-05
4.01152e-06
1.14876e-05
4.7184e-06
1.0341e-05
5.38425e-06