/*--------------------------------*- C++ -*----------------------------------*\
| =========                 |                                                 |
| \\      /  F ield         | OpenFOAM: The Open Source CFD Toolbox           |
|  \\    /   O peration     | Version:  v2012                                 |
|   \\  /    A nd           | Website:  www.openfoam.com                      |
|    \\/     M anipulation  |                                                 |
\*---------------------------------------------------------------------------*/
FoamFile
{
    version     2.0;
    format      ascii;
    class       volVectorField;
    location    "1";
    object      U;
}
// * * * * * * * * * * * * * * * * * * * * * * * * * * * * * * * * * * * * * //

dimensions      [0 1 -1 0 0 0 0];


internalField   nonuniform List<vector> 
2268
(
(0.000198202 0.0016052 0)
(-0.0194492 0.00836559 0)
(-0.0487931 0.00793654 0)
(-0.0723289 0.00736046 0)
(-0.0966557 0.0073058 0)
(-0.12077 0.00731354 0)
(-0.144227 0.00710409 0)
(-0.165982 0.0065836 0)
(-0.184979 0.00574086 0)
(-0.200169 0.00454272 0)
(-0.210646 0.00287488 0)
(-0.215598 0.000705268 0)
(-0.213906 -0.00167926 0)
(-0.206089 -0.00386713 0)
(-0.193472 -0.00582941 0)
(-0.174644 -0.00906583 0)
(-0.145091 -0.0138699 0)
(-0.102045 -0.01934 0)
(-0.0469796 -0.0235777 0)
(0.0139348 -0.0231321 0)
(0.0638366 -0.0133326 0)
(0.0812164 0.00490916 0)
(0.0426723 0.0157976 0)
(-0.0161817 0.00799484 0)
(-0.0411994 0.019733 0)
(-0.0714952 0.0193535 0)
(-0.0981772 0.0184252 0)
(-0.125196 0.0181644 0)
(-0.151188 0.0176733 0)
(-0.175193 0.0165273 0)
(-0.195988 0.0145768 0)
(-0.212404 0.0118268 0)
(-0.223379 0.00837365 0)
(-0.228301 0.00438813 0)
(-0.227566 0.000148846 0)
(-0.22283 -0.00388556 0)
(-0.214828 -0.00759176 0)
(-0.202379 -0.0114497 0)
(-0.183697 -0.017374 0)
(-0.156412 -0.0258487 0)
(-0.118539 -0.0355042 0)
(-0.0702 -0.0430416 0)
(-0.0152926 -0.0424095 0)
(0.0336818 -0.0250744 0)
(0.0617973 0.00943898 0)
(0.0467785 0.0406983 0)
(-0.0244169 0.0233703 0)
(-0.0482603 0.0332214 0)
(-0.076458 0.0320769 0)
(-0.103299 0.0308113 0)
(-0.130125 0.0301743 0)
(-0.155738 0.028917 0)
(-0.179232 0.0265043 0)
(-0.199534 0.022765 0)
(-0.215559 0.017724 0)
(-0.226295 0.0116185 0)
(-0.231185 0.00498982 0)
(-0.230575 -0.00140635 0)
(-0.225751 -0.00700421 0)
(-0.21769 -0.0121405 0)
(-0.206077 -0.0180664 0)
(-0.189638 -0.026735 0)
(-0.166443 -0.0387688 0)
(-0.13451 -0.0525762 0)
(-0.0925761 -0.064032 0)
(-0.0417512 -0.0650454 0)
(0.00825001 -0.0430559 0)
(0.0427923 0.00528451 0)
(0.0396795 0.0608036 0)
(-0.0271594 0.0406415 0)
(-0.0501826 0.0465922 0)
(-0.0776676 0.0448917 0)
(-0.104724 0.0434742 0)
(-0.131517 0.042446 0)
(-0.157099 0.0404137 0)
(-0.180644 0.0367699 0)
(-0.201141 0.0313022 0)
(-0.217469 0.024029 0)
(-0.228509 0.0153057 0)
(-0.233575 0.00600164 0)
(-0.23294 -0.00269083 0)
(-0.227948 -0.0100514 0)
(-0.220017 -0.0165799 0)
(-0.209683 -0.0241308 0)
(-0.196358 -0.0350332 0)
(-0.178514 -0.0502608 0)
(-0.153813 -0.0683339 0)
(-0.11891 -0.0847847 0)
(-0.0710311 -0.0894513 0)
(-0.0176577 -0.0642521 0)
(0.024591 -0.00293588 0)
(0.0325091 0.076529 0)
(-0.0272137 0.0579522 0)
(-0.0502253 0.0597596 0)
(-0.077676 0.0577233 0)
(-0.104992 0.0562536 0)
(-0.131924 0.0548523 0)
(-0.15774 0.0520842 0)
(-0.181674 0.0472709 0)
(-0.202717 0.0401195 0)
(-0.219639 0.0305988 0)
(-0.231127 0.0191597 0)
(-0.236297 0.0070221 0)
(-0.235392 -0.00410607 0)
(-0.230012 -0.0131529 0)
(-0.22217 -0.0207265 0)
(-0.213307 -0.0291705 0)
(-0.203715 -0.0413013 0)
(-0.192451 -0.0586989 0)
(-0.176797 -0.0806118 0)
(-0.150587 -0.103253 0)
(-0.105649 -0.114608 0)
(-0.0471484 -0.0888181 0)
(0.00392822 -0.0159604 0)
(0.0246966 0.0860632 0)
(-0.0261863 0.0749142 0)
(-0.0494807 0.0729315 0)
(-0.0770004 0.0706222 0)
(-0.104513 0.0691177 0)
(-0.131661 0.0673851 0)
(-0.157887 0.0639582 0)
(-0.18247 0.0580624 0)
(-0.204357 0.0492767 0)
(-0.222141 0.03747 0)
(-0.234223 0.0231655 0)
(-0.239444 0.00798058 0)
(-0.238027 -0.00572873 0)
(-0.23193 -0.0163744 0)
(-0.223882 -0.0245166 0)
(-0.216312 -0.0328948 0)
(-0.210632 -0.0448223 0)
(-0.206934 -0.062756 0)
(-0.202509 -0.0876432 0)
(-0.18764 -0.118031 0)
(-0.146758 -0.140176 0)
(-0.0822763 -0.116999 0)
(-0.021382 -0.0338232 0)
(0.0137859 0.0890265 0)
(-0.0248098 0.0913969 0)
(-0.0482662 0.0861275 0)
(-0.0756691 0.0835791 0)
(-0.10323 0.082069 0)
(-0.130597 0.0800974 0)
(-0.15736 0.0761408 0)
(-0.182827 0.0692884 0)
(-0.205856 0.058931 0)
(-0.224793 0.0447719 0)
(-0.237653 0.0273707 0)
(-0.242914 0.00881223 0)
(-0.240754 -0.0077106 0)
(-0.233537 -0.0198964 0)
(-0.224789 -0.0281029 0)
(-0.217944 -0.0353919 0)
(-0.215745 -0.0453795 0)
(-0.220116 -0.0615706 0)
(-0.229419 -0.0879625 0)
(-0.229369 -0.127691 0)
(-0.194416 -0.165902 0)
(-0.124086 -0.148992 0)
(-0.0524377 -0.055913 0)
(-0.000924799 0.0859367 0)
(-0.0233737 0.107309 0)
(-0.0465329 0.0992072 0)
(-0.073506 0.0964624 0)
(-0.10091 0.09503 0)
(-0.128446 0.0929806 0)
(-0.155839 0.0886867 0)
(-0.182412 0.0810426 0)
(-0.206894 0.0691747 0)
(-0.227323 0.0525386 0)
(-0.241233 0.0316981 0)
(-0.246645 0.00932368 0)
(-0.243661 -0.0103038 0)
(-0.235054 -0.0240128 0)
(-0.225178 -0.0319458 0)
(-0.218255 -0.0374615 0)
(-0.218345 -0.0441403 0)
(-0.230333 -0.0569176 0)
(-0.255529 -0.0837585 0)
(-0.27361 -0.1333 0)
(-0.247153 -0.191362 0)
(-0.172611 -0.186273 0)
(-0.090268 -0.0877211 0)
(-0.0166114 0.0680525 0)
(0.0845488 -0.0408549 0)
(0.0299086 0.0268971 0)
(-0.183497 0.0549943 0)
(-0.381832 0.0493741 0)
(-0.496844 0.0203737 0)
(-0.501693 -0.00636522 0)
(-0.453972 -0.0154984 0)
(-0.420318 -0.0104835 0)
(-0.40363 -0.00937574 0)
(-0.371205 -0.020295 0)
(-0.280307 -0.0450552 0)
(-0.13475 -0.0596477 0)
(0.0146008 -0.046685 0)
(0.124347 -0.026604 0)
(0.170049 -0.00743839 0)
(0.162527 0.00102848 0)
(0.133788 0.00444705 0)
(0.0891608 0.00843403 0)
(0.0726139 0.0185929 0)
(-0.0172949 -0.0147575 0)
(-0.12735 0.0953191 0)
(-0.360871 0.124766 0)
(-0.493733 0.0939049 0)
(-0.515987 0.0292634 0)
(-0.470476 -0.021358 0)
(-0.411596 -0.034396 0)
(-0.367209 -0.0222693 0)
(-0.347366 -0.016562 0)
(-0.318061 -0.0350337 0)
(-0.232815 -0.0807033 0)
(-0.098278 -0.108303 0)
(0.0310388 -0.08798 0)
(0.125279 -0.0502613 0)
(0.157956 -0.00923137 0)
(0.133482 0.0148493 0)
(0.0854222 0.0239272 0)
(0.0358029 0.0262457 0)
(0.0500365 0.0458835 0)
(-0.0858585 0.0397982 0)
(-0.221424 0.164548 0)
(-0.396461 0.179844 0)
(-0.470668 0.115403 0)
(-0.478553 0.0244406 0)
(-0.424805 -0.037636 0)
(-0.342411 -0.0500483 0)
(-0.292767 -0.0334026 0)
(-0.281265 -0.0274047 0)
(-0.26527 -0.0535939 0)
(-0.179663 -0.11585 0)
(-0.047784 -0.153474 0)
(0.0699589 -0.127471 0)
(0.157903 -0.074307 0)
(0.180383 -0.00844721 0)
(0.135749 0.0361414 0)
(0.0583621 0.0482525 0)
(-0.00670392 0.0405208 0)
(-0.000925742 0.0555428 0)
(-0.123157 0.110035 0)
(-0.251937 0.226451 0)
(-0.375752 0.22057 0)
(-0.430507 0.135266 0)
(-0.432431 0.0252724 0)
(-0.340007 -0.070973 0)
(-0.20724 -0.0813601 0)
(-0.140936 -0.0373242 0)
(-0.153135 -0.0230001 0)
(-0.187243 -0.0582565 0)
(-0.101019 -0.154852 0)
(0.0312886 -0.199278 0)
(0.139469 -0.162409 0)
(0.218223 -0.0932479 0)
(0.235562 -0.00332024 0)
(0.18051 0.065656 0)
(0.0796636 0.0816338 0)
(-0.0174545 0.0477367 0)
(-0.0399302 0.0221722 0)
(-0.137813 0.186718 0)
(-0.244957 0.275915 0)
(-0.335472 0.250651 0)
(-0.380941 0.156236 0)
(-0.365085 0.00341981 0)
(-0.212652 -0.161205 0)
(-0.0683288 -0.176596 0)
(0.0728187 -0.0550582 0)
(0.0710004 0.00434671 0)
(-0.0360856 -0.0533009 0)
(0.0360617 -0.227141 0)
(0.144131 -0.264072 0)
(0.242097 -0.203528 0)
(0.305826 -0.105421 0)
(0.312603 0.00734524 0)
(0.259666 0.0940318 0)
(0.170768 0.117447 0)
(0.0774579 0.0849704 0)
(-0.0128415 0.0194388 0)
(-0.14063 0.263611 0)
(-0.222296 0.312586 0)
(-0.289826 0.27497 0)
(-0.327961 0.172179 0)
(-0.264753 -0.0603371 0)
(-0.152159 -0.199971 0)
(-0.064247 -0.220336 0)
(0.0840115 -0.142089 0)
(0.185293 0.0257426 0)
(0.124608 -0.0307567 0)
(0.139118 -0.251552 0)
(0.2177 -0.305934 0)
(0.317379 -0.249001 0)
(0.398019 -0.125779 0)
(0.40377 0.0188176 0)
(0.356371 0.115537 0)
(0.293504 0.142866 0)
(0.228235 0.153034 0)
(0.0570491 0.0764812 0)
(-0.140681 0.33593 0)
(-0.199162 0.337539 0)
(-0.24462 0.295797 0)
(-0.274442 0.168883 0)
(-0.201569 -0.101057 0)
(-0.115482 -0.229766 0)
(-0.0573762 -0.253901 0)
(0.0430514 -0.190132 0)
(0.15492 0.00306383 0)
(0.212217 -0.0310791 0)
(0.214181 -0.263735 0)
(0.267572 -0.333677 0)
(0.35737 -0.283501 0)
(0.448307 -0.153758 0)
(0.507053 0.0113653 0)
(0.473028 0.143148 0)
(0.404916 0.184522 0)
(0.26206 0.237583 0)
(0.128455 0.125907 0)
(-0.144281 0.406839 0)
(-0.188776 0.350836 0)
(-0.205084 0.315213 0)
(-0.2131 0.153072 0)
(-0.141027 -0.128855 0)
(-0.0861581 -0.255031 0)
(-0.0489036 -0.282543 0)
(0.00911933 -0.222919 0)
(0.104153 -0.0379544 0)
(0.236669 -0.0496955 0)
(0.266448 -0.276009 0)
(0.301257 -0.360819 0)
(0.374396 -0.320928 0)
(0.458328 -0.183997 0)
(0.529911 -0.00891373 0)
(0.550576 0.159994 0)
(0.484526 0.263537 0)
(0.290141 0.292264 0)
(0.178736 0.208119 0)
(-0.0211816 0.130097 0)
(-0.0427224 0.119123 0)
(-0.0685233 0.116111 0)
(-0.0953809 0.115008 0)
(-0.123132 0.113201 0)
(-0.151715 0.108776 0)
(-0.180477 0.100209 0)
(-0.207917 0.0860747 0)
(-0.231547 0.0653151 0)
(-0.248021 0.038474 0)
(-0.25449 0.0093898 0)
(-0.250986 -0.0155772 0)
(-0.241057 -0.0320785 0)
(-0.22976 -0.0399736 0)
(-0.221605 -0.0428388 0)
(-0.221946 -0.0441916 0)
(-0.241995 -0.0511666 0)
(-0.294187 -0.075806 0)
(-0.347421 -0.136743 0)
(-0.334349 -0.234658 0)
(-0.261105 -0.255957 0)
(-0.167481 -0.161622 0)
(-0.0581698 -0.039393 0)
(-0.0156808 0.156469 0)
(-0.0335697 0.144424 0)
(-0.0569382 0.141801 0)
(-0.0823879 0.142293 0)
(-0.110623 0.142485 0)
(-0.141932 0.139863 0)
(-0.175792 0.132027 0)
(-0.210561 0.116376 0)
(-0.243133 0.0905622 0)
(-0.268576 0.0544253 0)
(-0.282251 0.0132443 0)
(-0.284343 -0.0228846 0)
(-0.279252 -0.0465623 0)
(-0.270488 -0.0546234 0)
(-0.256936 -0.050828 0)
(-0.238326 -0.0331709 0)
(-0.243973 -0.0015034 0)
(-0.341818 0.015505 0)
(-0.473397 -0.0939253 0)
(-0.453793 -0.308328 0)
(-0.407176 -0.342772 0)
(-0.351177 -0.233016 0)
(-0.311798 -0.0724713 0)
(-0.00679718 0.173626 0)
(-0.0187151 0.16514 0)
(-0.0377771 0.164975 0)
(-0.0604516 0.169414 0)
(-0.0888037 0.174374 0)
(-0.123586 0.176442 0)
(-0.164623 0.172002 0)
(-0.210564 0.157293 0)
(-0.258489 0.128579 0)
(-0.302559 0.0838255 0)
(-0.336871 0.0288107 0)
(-0.361429 -0.0192689 0)
(-0.377084 -0.0460758 0)
(-0.372054 -0.0510291 0)
(-0.327475 -0.0460365 0)
(-0.292785 -0.0277718 0)
(-0.270194 0.080238 0)
(-0.330039 0.211935 0)
(-0.498981 0.0198384 0)
(-0.516982 -0.338139 0)
(-0.527376 -0.357642 0)
(-0.525177 -0.219959 0)
(-0.533613 -0.0198186 0)
(0.00401357 0.183557 0)
(0.00273968 0.181185 0)
(-0.00964007 0.184772 0)
(-0.0279912 0.194822 0)
(-0.055722 0.205658 0)
(-0.0936358 0.213123 0)
(-0.142277 0.21328 0)
(-0.202177 0.202066 0)
(-0.274817 0.173547 0)
(-0.358075 0.123363 0)
(-0.441653 0.0643249 0)
(-0.515034 0.0233162 0)
(-0.579389 -0.000856707 0)
(-0.67416 -0.0415542 0)
(-0.721796 -0.124457 0)
(-0.637982 -0.145041 0)
(-0.477903 0.0182881 0)
(-0.344278 0.242347 0)
(-0.353662 0.203572 0)
(-0.500554 -0.286373 0)
(-0.566187 -0.333554 0)
(-0.564526 -0.217292 0)
(-0.541391 -0.0512026 0)
(0.0117032 0.183582 0)
(0.0279436 0.193018 0)
(0.0232488 0.197043 0)
(0.00975503 0.211093 0)
(-0.0165334 0.22762 0)
(-0.0576336 0.243199 0)
(-0.115347 0.253191 0)
(-0.19372 0.253673 0)
(-0.302371 0.240928 0)
(-0.454098 0.209329 0)
(-0.656381 0.16462 0)
(-0.867967 0.128971 0)
(-0.980729 0.0835426 0)
(-0.991947 -0.0223003 0)
(-0.95596 -0.162717 0)
(-0.897674 -0.238709 0)
(-0.792646 -0.177305 0)
(-0.545974 0.0646387 0)
(-0.322347 0.165975 0)
(-0.362313 -0.114646 0)
(-0.538145 -0.298874 0)
(-0.537231 -0.220909 0)
(-0.47616 -0.0944388 0)
(0.00351039 0.157174 0)
(0.0427871 0.180586 0)
(0.0428792 0.193996 0)
(0.030226 0.219442 0)
(0.000206849 0.246496 0)
(-0.0575618 0.276634 0)
(-0.161891 0.317523 0)
(-0.347404 0.384181 0)
(-0.609057 0.455269 0)
(-0.873556 0.481569 0)
(-1.05882 0.390883 0)
(-1.08552 0.236572 0)
(-1.09168 0.101885 0)
(-1.07672 -0.0478668 0)
(-1.05194 -0.202594 0)
(-1.02318 -0.304035 0)
(-0.979401 -0.317836 0)
(-0.854982 -0.217147 0)
(-0.577209 -0.0471896 0)
(-0.397012 -0.0410568 0)
(-0.403779 -0.197721 0)
(-0.542194 -0.275059 0)
(-0.475062 -0.158313 0)
(-0.0651604 0.108906 0)
(0.021772 0.155855 0)
(0.000674798 0.193995 0)
(-0.0386068 0.257042 0)
(-0.122804 0.36002 0)
(-0.254537 0.500015 0)
(-0.413357 0.633713 0)
(-0.591064 0.738998 0)
(-0.765122 0.778268 0)
(-0.903754 0.726249 0)
(-0.982975 0.524931 0)
(-1.00063 0.271247 0)
(-1.01153 0.108311 0)
(-1.01394 -0.0610102 0)
(-1.02712 -0.222902 0)
(-1.05136 -0.328683 0)
(-1.05014 -0.368352 0)
(-1.00535 -0.354518 0)
(-0.886917 -0.290431 0)
(-0.705735 -0.256576 0)
(-0.554004 -0.193552 0)
(-0.485951 -0.231902 0)
(-0.485883 -0.239383 0)
(-0.0468205 0.129368 0)
(-0.077438 0.141145 0)
(-0.143151 0.262449 0)
(-0.207653 0.370095 0)
(-0.279973 0.474213 0)
(-0.3554 0.584967 0)
(-0.434806 0.704427 0)
(-0.515347 0.804244 0)
(-0.584056 0.834667 0)
(-0.634809 0.751651 0)
(-0.686838 0.540367 0)
(-0.754493 0.26553 0)
(-0.824682 0.113242 0)
(-0.849153 -0.036477 0)
(-0.91122 -0.181883 0)
(-1.01682 -0.288809 0)
(-1.03935 -0.373326 0)
(-1.02159 -0.400514 0)
(-0.96257 -0.402345 0)
(-0.880331 -0.383222 0)
(-0.779212 -0.346937 0)
(-0.67139 -0.328698 0)
(-0.605961 -0.26764 0)
(-0.053958 0.223171 0)
(-0.125642 0.243298 0)
(-0.195945 0.32356 0)
(-0.254003 0.411075 0)
(-0.300247 0.506692 0)
(-0.329792 0.613439 0)
(-0.342127 0.725184 0)
(-0.341713 0.815391 0)
(-0.33537 0.844065 0)
(-0.333757 0.775775 0)
(-0.359478 0.601194 0)
(-0.429218 0.384394 0)
(-0.528131 0.207555 0)
(-0.635416 0.071221 0)
(-0.748671 -0.0261404 0)
(-0.854365 -0.173747 0)
(-0.944052 -0.345294 0)
(-0.955046 -0.409438 0)
(-0.933848 -0.44127 0)
(-0.880848 -0.44777 0)
(-0.80837 -0.436478 0)
(-0.736614 -0.404058 0)
(-0.658204 -0.337891 0)
(-0.0455051 0.307625 0)
(-0.119094 0.329202 0)
(-0.178307 0.383275 0)
(-0.219635 0.450369 0)
(-0.243086 0.528875 0)
(-0.245342 0.61783 0)
(-0.2241 0.710222 0)
(-0.18261 0.785988 0)
(-0.133517 0.814287 0)
(-0.0961073 0.767907 0)
(-0.0943562 0.640178 0)
(-0.144264 0.470419 0)
(-0.234088 0.310571 0)
(-0.338088 0.175427 0)
(-0.441593 0.0611096 0)
(-0.545395 -0.0693108 0)
(-0.657905 -0.241355 0)
(-0.807118 -0.400904 0)
(-0.844486 -0.449287 0)
(-0.827283 -0.484885 0)
(-0.783417 -0.484778 0)
(-0.72526 -0.461929 0)
(-0.654085 -0.402662 0)
(-0.0291664 0.372705 0)
(-0.0852413 0.391955 0)
(-0.127739 0.428766 0)
(-0.153806 0.477526 0)
(-0.162298 0.53545 0)
(-0.150911 0.601005 0)
(-0.117407 0.669628 0)
(-0.0630348 0.727863 0)
(0.00264718 0.754287 0)
(0.0608891 0.728898 0)
(0.0897372 0.646119 0)
(0.0741334 0.524768 0)
(0.0185079 0.394712 0)
(-0.0580523 0.27074 0)
(-0.139845 0.154042 0)
(-0.226158 0.0303434 0)
(-0.328627 -0.10428 0)
(-0.449225 -0.253755 0)
(-0.581564 -0.404948 0)
(-0.738003 -0.498299 0)
(-0.727187 -0.51229 0)
(-0.711814 -0.513953 0)
(-0.671987 -0.466476 0)
(-0.0143122 0.415302 0)
(-0.0480653 0.43328 0)
(-0.0731857 0.456435 0)
(-0.0858417 0.489035 0)
(-0.0840151 0.529046 0)
(-0.0657286 0.574445 0)
(-0.0291841 0.621959 0)
(0.0254596 0.663396 0)
(0.0921685 0.685211 0)
(0.157883 0.673893 0)
(0.205739 0.623789 0)
(0.222633 0.542089 0)
(0.206682 0.443149 0)
(0.16669 0.336939 0)
(0.113025 0.22733 0)
(0.0494304 0.11264 0)
(-0.0280561 -0.00592694 0)
(-0.123059 -0.122828 0)
(-0.231701 -0.240104 0)
(-0.352095 -0.377356 0)
(-0.498403 -0.498548 0)
(-0.630824 -0.540958 0)
(-0.584907 -0.579495 0)
(-0.00328151 0.434915 0)
(-0.0175741 0.454433 0)
(-0.0275328 0.468498 0)
(-0.0283805 0.489062 0)
(-0.0183495 0.515336 0)
(0.00429911 0.545284 0)
(0.0409519 0.576245 0)
(0.0917704 0.603236 0)
(0.153502 0.618289 0)
(0.218125 0.612801 0)
(0.274466 0.581723 0)
(0.312494 0.526399 0)
(0.327675 0.452865 0)
(0.321661 0.366751 0)
(0.298754 0.271869 0)
(0.261861 0.170205 0)
(0.211238 0.0649895 0)
(0.147327 -0.0386691 0)
(0.0729624 -0.138249 0)
(-0.0074519 -0.238004 0)
(-0.0948567 -0.345272 0)
(-0.183021 -0.469387 0)
(-0.258213 -0.563377 0)
(0.00430541 0.43564 0)
(0.00425081 0.460436 0)
(0.00615463 0.467931 0)
(0.0150467 0.480035 0)
(0.0317815 0.496246 0)
(0.0576894 0.514762 0)
(0.0938385 0.533432 0)
(0.1405 0.549079 0)
(0.195992 0.556981 0)
(0.255769 0.551799 0)
(0.313023 0.52972 0)
(0.3608 0.489996 0)
(0.394399 0.434561 0)
(0.412177 0.366124 0)
(0.41451 0.287278 0)
(0.40225 0.200441 0)
(0.376115 0.108648 0)
(0.337494 0.0154847 0)
(0.28898 -0.0767507 0)
(0.232456 -0.169316 0)
(0.167186 -0.265798 0)
(0.0910451 -0.364788 0)
(0.00590229 -0.445923 0)
(0.00879599 0.424955 0)
(0.0181884 0.455213 0)
(0.0289335 0.457628 0)
(0.0451065 0.463638 0)
(0.0669311 0.47262 0)
(0.0952997 0.482924 0)
(0.130957 0.492785 0)
(0.174145 0.500021 0)
(0.224002 0.501745 0)
(0.278012 0.494677 0)
(0.33215 0.476134 0)
(0.381863 0.444863 0)
(0.423284 0.401137 0)
(0.453878 0.346054 0)
(0.47228 0.281136 0)
(0.477865 0.20824 0)
(0.470574 0.129662 0)
(0.451147 0.0478869 0)
(0.421019 -0.0352635 0)
(0.381182 -0.119362 0)
(0.330503 -0.204866 0)
(0.266568 -0.288883 0)
(0.189034 -0.360757 0)
(0.0109341 0.408346 0)
(0.0262742 0.441661 0)
(0.0432413 0.440441 0)
(0.0643278 0.441966 0)
(0.0895749 0.445742 0)
(0.119516 0.450223 0)
(0.154601 0.453888 0)
(0.194962 0.455134 0)
(0.240107 0.452097 0)
(0.288603 0.442733 0)
(0.33806 0.42523 0)
(0.385535 0.398446 0)
(0.428146 0.36208 0)
(0.463497 0.316486 0)
(0.489784 0.262503 0)
(0.505751 0.201382 0)
(0.5107 0.134739 0)
(0.50457 0.0643428 0)
(0.487812 -0.00824143 0)
(0.460807 -0.081813 0)
(0.422885 -0.155265 0)
(0.372469 -0.225631 0)
(0.309195 -0.286431 0)
(0.0117784 0.388519 0)
(0.0306864 0.422702 0)
(0.0516189 0.418885 0)
(0.0756261 0.41705 0)
(0.102775 0.417003 0)
(0.133359 0.417322 0)
(0.167594 0.416666 0)
(0.205482 0.413762 0)
(0.246664 0.407317 0)
(0.290253 0.396012 0)
(0.334769 0.378652 0)
(0.378297 0.354374 0)
(0.418771 0.322781 0)
(0.454245 0.283929 0)
(0.483037 0.23828 0)
(0.503791 0.186649 0)
(0.515548 0.130159 0)
(0.517791 0.0701093 0)
(0.510368 0.00784789 0)
(0.493239 -0.0552096 0)
(0.466055 -0.117399 0)
(0.427943 -0.175978 0)
(0.378557 -0.226387 0)
(0.0120451 0.36717 0)
(0.0329154 0.400602 0)
(0.056056 0.394872 0)
(0.0814789 0.390502 0)
(0.109314 0.387595 0)
(0.13971 0.384884 0)
(0.172735 0.381195 0)
(0.208285 0.375469 0)
(0.246035 0.36673 0)
(0.285357 0.354078 0)
(0.32527 0.336724 0)
(0.364489 0.314073 0)
(0.401551 0.285802 0)
(0.434975 0.251884 0)
(0.463374 0.212591 0)
(0.485537 0.168471 0)
(0.500494 0.120324 0)
(0.507569 0.0691362 0)
(0.506333 0.0160538 0)
(0.496518 -0.0375332 0)
(0.477877 -0.0898554 0)
(0.449906 -0.13841 0)
(0.41238 -0.179601 0)
(0.0120354 0.34531 0)
(0.0337754 0.376908 0)
(0.0578836 0.369743 0)
(0.0836855 0.363471 0)
(0.111341 0.358411 0)
(0.140916 0.353462 0)
(0.172402 0.347618 0)
(0.205644 0.339984 0)
(0.240324 0.32978 0)
(0.275941 0.316346 0)
(0.311783 0.299141 0)
(0.346946 0.277772 0)
(0.380385 0.25202 0)
(0.410999 0.221867 0)
(0.437709 0.187501 0)
(0.459517 0.149321 0)
(0.475566 0.107926 0)
(0.485179 0.0641001 0)
(0.487854 0.0188221 0)
(0.483235 -0.0266316 0)
(0.471106 -0.0705721 0)
(0.451125 -0.110728 0)
(0.423213 -0.144059 0)
(0.0118509 0.323528 0)
(0.0337141 0.352628 0)
(0.0579618 0.344392 0)
(0.0834699 0.336722 0)
(0.110382 0.330059 0)
(0.138711 0.323456 0)
(0.168424 0.316067 0)
(0.199359 0.307144 0)
(0.231216 0.296048 0)
(0.263569 0.282261 0)
(0.295863 0.265394 0)
(0.327421 0.245181 0)
(0.357475 0.221495 0)
(0.385207 0.194347 0)
(0.409795 0.163897 0)
(0.430452 0.130465 0)
(0.446465 0.0945317 0)
(0.457234 0.0567499 0)
(0.462277 0.0179731 0)
(0.461242 -0.0206517 0)
(0.453933 -0.0575848 0)
(0.440103 -0.0907901 0)
(0.419806 -0.117627 0)
(0.0115424 0.302203 0)
(0.0330322 0.328413 0)
(0.0568814 0.319386 0)
(0.0816694 0.310728 0)
(0.10749 0.302908 0)
(0.134317 0.295107 0)
(0.162123 0.286622 0)
(0.190764 0.276837 0)
(0.219977 0.265229 0)
(0.249397 0.251381 0)
(0.278571 0.234994 0)
(0.306968 0.215885 0)
(0.334002 0.193984 0)
(0.359051 0.169332 0)
(0.381489 0.142082 0)
(0.400706 0.112511 0)
(0.416129 0.0810314 0)
(0.427257 0.0482094 0)
(0.433671 0.0148028 0)
(0.435062 -0.0181602 0)
(0.431269 -0.0493028 0)
(0.42212 -0.07682 0)
(0.407768 -0.0984173 0)
(0.0111642 0.281562 0)
(0.0319743 0.304691 0)
(0.0550785 0.295093 0)
(0.0788726 0.285779 0)
(0.103389 0.27717 0)
(0.128578 0.268541 0)
(0.154423 0.259305 0)
(0.180812 0.248965 0)
(0.207527 0.237099 0)
(0.234263 0.223371 0)
(0.260646 0.207547 0)
(0.286248 0.189493 0)
(0.310605 0.169175 0)
(0.333233 0.146651 0)
(0.353648 0.122073 0)
(0.371374 0.095695 0)
(0.385961 0.0678845 0)
(0.397004 0.039148 0)
(0.404158 0.0101678 0)
(0.407171 -0.0181327 0)
(0.405929 -0.0445321 0)
(0.400322 -0.0674436 0)
(0.390568 -0.0848843 0)
(0.0107718 0.261713 0)
(0.0307346 0.281752 0)
(0.0528712 0.271768 0)
(0.0754898 0.262067 0)
(0.0985727 0.252967 0)
(0.12206 0.243808 0)
(0.145947 0.234095 0)
(0.170153 0.223429 0)
(0.194507 0.211478 0)
(0.218759 0.197979 0)
(0.242603 0.182747 0)
(0.265693 0.165684 0)
(0.287654 0.146776 0)
(0.308101 0.12609 0)
(0.326651 0.103776 0)
(0.342932 0.0800688 0)
(0.356589 0.0553067 0)
(0.3673 0.0299503 0)
(0.374794 0.00462004 0)
(0.378877 -0.0198538 0)
(0.37948 -0.0423911 0)
(0.376546 -0.0616038 0)
(0.370335 -0.075787 0)
(0.0103996 0.242688 0)
(0.0294361 0.259786 0)
(0.0504639 0.24959 0)
(0.0717873 0.239721 0)
(0.0933637 0.230368 0)
(0.115133 0.220914 0)
(0.137101 0.210939 0)
(0.159214 0.200124 0)
(0.18134 0.188213 0)
(0.203282 0.175005 0)
(0.224794 0.160362 0)
(0.245594 0.144212 0)
(0.265379 0.126555 0)
(0.283841 0.107462 0)
(0.300671 0.0870772 0)
(0.315575 0.0656217 0)
(0.328273 0.0434077 0)
(0.338514 0.0208589 0)
(0.346087 -0.00145789 0)
(0.350852 -0.0227973 0)
(0.352781 -0.0422032 0)
(0.35186 -0.0584654 0)
(0.348369 -0.0701238 0)
(0.0100494 0.224476 0)
(0.028123 0.238909 0)
(0.0479571 0.228682 0)
(0.0679145 0.218826 0)
(0.0879528 0.209402 0)
(0.108021 0.199837 0)
(0.128134 0.189765 0)
(0.148257 0.178936 0)
(0.168292 0.167156 0)
(0.188085 0.154278 0)
(0.207441 0.140203 0)
(0.226135 0.124883 0)
(0.243923 0.108331 0)
(0.260556 0.0906183 0)
(0.275787 0.0718823 0)
(0.289381 0.0523308 0)
(0.301118 0.0322537 0)
(0.310802 0.0120421 0)
(0.318274 -0.00778546 0)
(0.323439 -0.0265615 0)
(0.326301 -0.0434388 0)
(0.326878 -0.057363 0)
(0.325463 -0.067088 0)
(0.00969564 0.207074 0)
(0.0267802 0.219184 0)
(0.0453746 0.209114 0)
(0.0639356 0.199419 0)
(0.0824389 0.190066 0)
(0.100848 0.180524 0)
(0.119187 0.170483 0)
(0.137433 0.159743 0)
(0.155514 0.148163 0)
(0.173312 0.135639 0)
(0.190674 0.122105 0)
(0.207423 0.107537 0)
(0.223365 0.0919568 0)
(0.238301 0.0754373 0)
(0.252034 0.0581099 0)
(0.264377 0.0401691 0)
(0.275158 0.0218851 0)
(0.284225 0.00361931 0)
(0.291462 -0.014156 0)
(0.29681 -0.0308407 0)
(0.300297 -0.0456849 0)
(0.301963 -0.0577698 0)
(0.3021 -0.0660331 0)
(0.00930428 0.190508 0)
(0.0253663 0.200646 0)
(0.0427001 0.190912 0)
(0.0598665 0.181499 0)
(0.0768661 0.172323 0)
(0.0936794 0.162908 0)
(0.110334 0.15299 0)
(0.12682 0.142417 0)
(0.143083 0.131087 0)
(0.159033 0.118933 0)
(0.174553 0.105914 0)
(0.189505 0.0920262 0)
(0.203737 0.0773001 0)
(0.217093 0.0618114 0)
(0.229417 0.0456856 0)
(0.240563 0.029106 0)
(0.250396 0.0123242 0)
(0.258802 -0.00432514 0)
(0.265698 -0.0204135 0)
(0.271055 -0.0354001 0)
(0.274916 -0.0486186 0)
(0.277335 -0.0592668 0)
(0.278593 -0.0664374 0)
(0.0088492 0.174839 0)
(0.0238453 0.183322 0)
(0.0399122 0.174071 0)
(0.0557076 0.165034 0)
(0.0712538 0.156115 0)
(0.0865455 0.146901 0)
(0.101614 0.137178 0)
(0.116457 0.12683 0)
(0.131033 0.115788 0)
(0.145277 0.104011 0)
(0.159099 0.0914818 0)
(0.172393 0.0782106 0)
(0.185043 0.0642374 0)
(0.196927 0.0496396 0)
(0.207926 0.0345385 0)
(0.217925 0.0191071 0)
(0.226822 0.00358098 0)
(0.234534 -0.0117311 0)
(0.241006 -0.0264387 0)
(0.246228 -0.0400535 0)
(0.250255 -0.0519802 0)
(0.253149 -0.0615143 0)
(0.255169 -0.0678762 0)
(0.00832131 0.160153 0)
(0.0222045 0.167234 0)
(0.0370059 0.158568 0)
(0.0514661 0.149974 0)
(0.0656193 0.141369 0)
(0.0794689 0.132413 0)
(0.0930484 0.122937 0)
(0.10636 0.112856 0)
(0.119376 0.102128 0)
(0.132047 0.0907309 0)
(0.144307 0.0786671 0)
(0.156075 0.0659578 0)
(0.167265 0.0526506 0)
(0.177782 0.0388249 0)
(0.187537 0.0245984 0)
(0.196442 0.0101356 0)
(0.204422 -0.0043427 0)
(0.211418 -0.0185523 0)
(0.217399 -0.0321351 0)
(0.22237 -0.0446478 0)
(0.226391 -0.0555546 0)
(0.229528 -0.0642317 0)
(0.232017 -0.070002 0)
(0.00772859 0.146535 0)
(0.0204587 0.152405 0)
(0.0340007 0.144377 0)
(0.0471655 0.136263 0)
(0.0599873 0.128012 0)
(0.0724727 0.119354 0)
(0.0846557 0.110162 0)
(0.0965432 0.100377 0)
(0.108116 0.0899777 0)
(0.11934 0.0789599 0)
(0.130166 0.0673373 0)
(0.140535 0.0551417 0)
(0.150381 0.0424266 0)
(0.159635 0.0292732 0)
(0.168227 0.0157961 0)
(0.176094 0.00215191 0)
(0.183181 -0.0114523 0)
(0.189452 -0.024754 0)
(0.194891 -0.0374235 0)
(0.199517 -0.049055 0)
(0.203393 -0.0591625 0)
(0.206586 -0.0671873 0)
(0.209307 -0.0725334 0)
(0.00709078 0.134053 0)
(0.0186426 0.138852 0)
(0.0309357 0.131468 0)
(0.0428434 0.123849 0)
(0.0543911 0.115974 0)
(0.0655841 0.107639 0)
(0.0764561 0.0987542 0)
(0.0870171 0.0892837 0)
(0.0972563 0.0792203 0)
(0.107149 0.0685737 0)
(0.116662 0.0573678 0)
(0.125752 0.0456426 0)
(0.134369 0.0334567 0)
(0.14246 0.0208925 0)
(0.149973 0.00806166 0)
(0.156861 -0.00488657 0)
(0.163088 -0.0177594 0)
(0.168635 -0.0303128 0)
(0.1735 -0.0422413 0)
(0.17771 -0.0531709 0)
(0.181329 -0.0626568 0)
(0.184428 -0.0701928 0)
(0.187196 -0.075247 0)
(0.00643181 0.122745 0)
(0.0167987 0.126579 0)
(0.0278579 0.119815 0)
(0.0385435 0.112685 0)
(0.048868 0.105193 0)
(0.0588335 0.0971936 0)
(0.0684722 0.0886269 0)
(0.0777968 0.0794759 0)
(0.0868024 0.0697461 0)
(0.095474 0.0594569 0)
(0.103788 0.0486412 0)
(0.111713 0.037346 0)
(0.11921 0.025635 0)
(0.126237 0.0135913 0)
(0.132755 0.0013232 0)
(0.138728 -0.0110283 0)
(0.144135 -0.0232842 0)
(0.14897 -0.0352173 0)
(0.153241 -0.046543 0)
(0.156984 -0.0569143 0)
(0.160263 -0.0659211 0)
(0.163153 -0.0730997 0)
(0.165824 -0.0779692 0)
(0.00577241 0.112616 0)
(0.0149649 0.11558 0)
(0.024811 0.109392 0)
(0.0343072 0.102728 0)
(0.043455 0.0956137 0)
(0.0522523 0.0879487 0)
(0.0607295 0.0796991 0)
(0.0689005 0.0708625 0)
(0.0767656 0.0614541 0)
(0.0843168 0.0515018 0)
(0.0915387 0.0410463 0)
(0.0984076 0.030142 0)
(0.104891 0.0188581 0)
(0.110952 0.00727866 0)
(0.116557 -0.00449275 0)
(0.12168 -0.0163257 0)
(0.126311 -0.0280548 0)
(0.130453 -0.039468 0)
(0.134125 -0.0502998 0)
(0.137367 -0.0602267 0)
(0.140248 -0.0688678 0)
(0.142843 -0.075795 0)
(0.14531 -0.0805689 0)
(0.00512453 0.103648 0)
(0.0131671 0.105836 0)
(0.021828 0.100171 0)
(0.03017 0.0939413 0)
(0.0381873 0.0871847 0)
(0.0458744 0.0798411 0)
(0.0532581 0.0718963 0)
(0.0603528 0.0633587 0)
(0.0671629 0.054251 0)
(0.0736868 0.0446077 0)
(0.0799159 0.0344777 0)
(0.0858315 0.0239247 0)
(0.0914024 0.0130256 0)
(0.0965904 0.00186533 0)
(0.101362 -0.00946017 0)
(0.105699 -0.020834 0)
(0.109599 -0.0321046 0)
(0.113074 -0.0430754 0)
(0.116151 -0.053498 0)
(0.118876 -0.0630696 0)
(0.12132 -0.0714349 0)
(0.12356 -0.0781965 0)
(0.125746 -0.0829496 0)
(0.00448939 0.095811 0)
(0.0114175 0.0973187 0)
(0.0189322 0.0921187 0)
(0.0261638 0.0862804 0)
(0.0331031 0.0798531 0)
(0.03974 0.0728087 0)
(0.0460968 0.0651478 0)
(0.0521877 0.0568863 0)
(0.0580208 0.048051 0)
(0.0636011 0.0386823 0)
(0.0689273 0.0288379 0)
(0.0739844 0.0185946 0)
(0.0787372 0.00804244 0)
(0.0831378 -0.00273284 0)
(0.0871493 -0.0136489 0)
(0.0907577 -0.0246064 0)
(0.0939694 -0.0354697 0)
(0.0968055 -0.0460574 0)
(0.0993012 -0.0561366 0)
(0.101506 -0.0654228 0)
(0.103493 -0.0735832 0)
(0.105341 -0.0802479 0)
(0.107193 -0.0850428 0)
(0.00386001 0.0890705 0)
(0.00972253 0.0899865 0)
(0.0161471 0.0851895 0)
(0.0223274 0.0796925 0)
(0.0282518 0.0735595 0)
(0.0339041 0.0667871 0)
(0.0393009 0.0593857 0)
(0.0444556 0.0513733 0)
(0.0493805 0.0427782 0)
(0.0540887 0.0336441 0)
(0.0585887 0.0240392 0)
(0.0628713 0.0140604 0)
(0.0668908 0.00382173 0)
(0.0705781 -0.00659051 0)
(0.0738876 -0.0171194 0)
(0.0768132 -0.0276901 0)
(0.0793734 -0.0381852 0)
(0.0815999 -0.0484369 0)
(0.0835341 -0.0582255 0)
(0.0852289 -0.0672819 0)
(0.0867547 -0.0752933 0)
(0.0881932 -0.0819152 0)
(0.0896775 -0.0868017 0)
(0.00322831 0.0833925 0)
(0.00809634 0.083782 0)
(0.0135104 0.0793162 0)
(0.0187186 0.0741076 0)
(0.0237051 0.0682341 0)
(0.0284458 0.0617082 0)
(0.0329506 0.0545433 0)
(0.0372319 0.0467552 0)
(0.0413064 0.0383684 0)
(0.0451973 0.0294267 0)
(0.0489288 0.0200089 0)
(0.0525043 0.010243 0)
(0.0558599 0.00029066 0)
(0.0588868 -0.00976418 0)
(0.0615279 -0.0199145 0)
(0.063797 -0.0301202 0)
(0.0657327 -0.0402815 0)
(0.0673783 -0.0502402 0)
(0.0687791 -0.0597849 0)
(0.0699866 -0.0686579 0)
(0.0710664 -0.0765643 0)
(0.0720962 -0.0831834 0)
(0.0731988 -0.0881967 0)
(0.00259537 0.0787338 0)
(0.00657837 0.0786208 0)
(0.0110903 0.0744066 0)
(0.0154275 0.0694378 0)
(0.0195674 0.0637963 0)
(0.0234777 0.0574991 0)
(0.0271616 0.0505563 0)
(0.0306288 0.042976 0)
(0.0338983 0.0347734 0)
(0.0370036 0.0259845 0)
(0.0399934 0.016694 0)
(0.0429018 0.00707704 0)
(0.0456354 -0.00260471 0)
(0.0480183 -0.0122803 0)
(0.0499858 -0.0220485 0)
(0.0515992 -0.0319134 0)
(0.0529283 -0.0417831 0)
(0.0540257 -0.0514978 0)
(0.0549336 -0.0608461 0)
(0.0556945 -0.0695778 0)
(0.0563629 -0.0774135 0)
(0.0570066 -0.0840559 0)
(0.0577337 -0.0892141 0)
(0.00198497 0.0750177 0)
(0.00525421 0.074386 0)
(0.00900138 0.0703483 0)
(0.0125872 0.0655864 0)
(0.015983 0.0601633 0)
(0.0191527 0.0540889 0)
(0.0220928 0.0473656 0)
(0.0248057 0.0399919 0)
(0.027304 0.0319661 0)
(0.029624 0.0233016 0)
(0.031848 0.0140706 0)
(0.0340805 0.00450936 0)
(0.0361796 -0.00489701 0)
(0.037874 -0.0141222 0)
(0.0391075 -0.0234996 0)
(0.0400436 -0.0330699 0)
(0.0407873 -0.0427151 0)
(0.0413857 -0.0522516 0)
(0.0418633 -0.0614587 0)
(0.0422428 -0.0700898 0)
(0.0425596 -0.0778809 0)
(0.0428657 -0.0845583 0)
(0.0432487 -0.0898591 0)
(0.00148439 0.0720994 0)
(0.00429211 0.0709204 0)
(0.00742214 0.0670083 0)
(0.0103755 0.0624419 0)
(0.0131317 0.0572351 0)
(0.0156591 0.0513866 0)