/*--------------------------------*- C++ -*----------------------------------*\
| =========                 |                                                 |
| \\      /  F ield         | OpenFOAM: The Open Source CFD Toolbox           |
|  \\    /   O peration     | Version:  v2012                                 |
|   \\  /    A nd           | Website:  www.openfoam.com                      |
|    \\/     M anipulation  |                                                 |
\*---------------------------------------------------------------------------*/
FoamFile
{
    version     2.0;
    format      ascii;
    class       surfaceScalarField;
    location    "0.45";
    object      alphaPhi0.water;
}
// * * * * * * * * * * * * * * * * * * * * * * * * * * * * * * * * * * * * * //

dimensions      [0 3 -1 0 0 0 0];
oriented        oriented;


internalField   nonuniform List<scalar> 
4432
(
-5.30079e-06
5.30079e-06
-6.19789e-06
8.971e-07
-3.54017e-06
-2.65771e-06
3.66396e-07
-3.90657e-06
4.53676e-06
-4.17036e-06
8.55294e-06
-4.01619e-06
1.22498e-05
-3.69682e-06
1.55916e-05
-3.34179e-06
1.85874e-05
-2.9958e-06
2.12523e-05
-2.66496e-06
2.35891e-05
-2.33682e-06
2.5576e-05
-1.98689e-06
2.71547e-05
-1.57869e-06
2.82095e-05
-1.05476e-06
2.85028e-05
-2.9331e-07
2.75955e-05
9.07319e-07
2.49942e-05
2.60124e-06
2.01929e-05
4.80138e-06
1.29034e-05
7.28949e-06
3.50139e-06
9.40199e-06
-6.25413e-06
1.00622e-05
-1.1397e-05
4.93664e-06
-1.19547e-05
-3.47181e-06
8.77261e-06
-2.51425e-06
-6.04677e-08
2.2474e-07
-5.3967e-06
3.78824e-06
-7.47005e-06
7.60517e-06
-7.98729e-06
1.13199e-05
-7.73097e-06
1.47866e-05
-7.16344e-06
1.79559e-05
-6.5111e-06
2.08198e-05
-5.85973e-06
2.33787e-05
-5.22389e-06
2.56234e-05
-4.5815e-06
2.75241e-05
-3.88753e-06
2.90216e-05
-3.07624e-06
3.00212e-05
-2.05431e-06
3.04105e-05
-6.82691e-07
3.0053e-05
1.26489e-06
2.86251e-05
4.02907e-06
2.56253e-05
7.80118e-06
2.04192e-05
1.24957e-05
1.26655e-05
1.71557e-05
3.24284e-06
1.95989e-05
-3.00317e-06
1.09745e-05
-1.49273e-05
-1.40269e-06
1.01753e-05
2.0091e-07
-1.66406e-06
2.89635e-06
-8.09214e-06
6.25589e-06
-1.08296e-05
9.77583e-06
-1.15072e-05
1.32009e-05
-1.1156e-05
1.64142e-05
-1.03767e-05
1.93718e-05
-9.46878e-06
2.20603e-05
-8.5482e-06
2.4471e-05
-7.63462e-06
2.65868e-05
-6.69727e-06
2.8373e-05
-5.67377e-06
2.97713e-05
-4.47449e-06
3.0695e-05
-2.978e-06
3.10339e-05
-1.02159e-06
3.06698e-05
1.62895e-06
2.9441e-05
5.25786e-06
2.71309e-05
1.01113e-05
2.3438e-05
1.61885e-05
1.80658e-05
2.25279e-05
1.11886e-05
2.64761e-05
4.09423e-06
1.85826e-05
-1.08027e-05
4.41649e-07
9.73366e-06
2.37152e-06
-3.59393e-06
5.18624e-06
-1.09069e-05
8.39552e-06
-1.40389e-05
1.16659e-05
-1.47776e-05
1.48201e-05
-1.43102e-05
1.77821e-05
-1.33387e-05
2.05229e-05
-1.22095e-05
2.30284e-05
-1.10538e-05
2.52844e-05
-9.89056e-06
2.72674e-05
-8.68031e-06
2.89396e-05
-7.34594e-06
3.02436e-05
-5.77849e-06
3.11014e-05
-3.83582e-06
3.14178e-05
-1.33797e-06
3.10943e-05
1.95251e-06
3.00351e-05
6.31697e-06
2.81508e-05
1.19957e-05
2.53383e-05
1.9001e-05
2.14083e-05
2.64578e-05
1.61184e-05
3.1766e-05
9.05154e-06
2.56496e-05
-1.77336e-06
1.89005e-06
7.84361e-06
4.25425e-06
-5.95812e-06
7.21566e-06
-1.38683e-05
1.03366e-05
-1.71599e-05
1.33896e-05
-1.78305e-05
1.6286e-05
-1.72066e-05
1.9001e-05
-1.60537e-05
2.15253e-05
-1.47339e-05
2.38474e-05
-1.33759e-05
2.59485e-05
-1.19916e-05
2.78004e-05
-1.05322e-05
2.9363e-05
-8.90849e-06
3.05808e-05
-6.99629e-06
3.13842e-05
-4.63922e-06
3.16942e-05
-1.64801e-06
3.14355e-05
2.21128e-06
3.05516e-05
7.20078e-06
2.90152e-05
1.35322e-05
2.68094e-05
2.12068e-05
2.37939e-05
2.94733e-05
1.95188e-05
3.60412e-05
1.23902e-05
3.27778e-05
1.05947e-05
2.8177e-06
5.02591e-06
5.85343e-06
-8.99386e-06
9.05276e-06
-1.70676e-05
1.21223e-05
-2.02294e-05
1.49684e-05
-2.06767e-05
1.76109e-05
-1.98491e-05
2.00829e-05
-1.85257e-05
2.23953e-05
-1.70463e-05
2.45381e-05
-1.55187e-05
2.64882e-05
-1.39417e-05
2.82134e-05
-1.22574e-05
2.96723e-05
-1.03674e-05
3.08121e-05
-8.13602e-06
3.15711e-05
-5.39827e-06
3.18862e-05
-1.96307e-06
3.17034e-05
2.39405e-06
3.0995e-05
7.90922e-06
2.97694e-05
1.47577e-05
2.80518e-05
2.29245e-05
2.57212e-05
3.18038e-05
2.22055e-05
3.9557e-05
1.5207e-05
3.97763e-05
2.57816e-05
3.49175e-06
1.53415e-06
7.28121e-06
-1.27833e-05
1.0773e-05
-2.05594e-05
1.3782e-05
-2.32384e-05
1.64019e-05
-2.32965e-05
1.87839e-05
-2.22311e-05
2.10171e-05
-2.0759e-05
2.31257e-05
-1.91549e-05
2.50971e-05
-1.74901e-05
2.69029e-05
-1.57474e-05
2.85072e-05
-1.38618e-05
2.98686e-05
-1.17287e-05
3.09373e-05
-9.2048e-06
3.166e-05
-6.12089e-06
3.19879e-05
-2.29099e-06
3.18865e-05
2.49545e-06
3.13507e-05
8.44499e-06
3.04156e-05
1.56928e-05
2.91366e-05
2.42034e-05
2.74213e-05
3.35191e-05
2.46813e-05
4.2297e-05
1.80426e-05
4.64149e-05
4.38044e-05
4.11776e-06
-2.58361e-06
8.72387e-06
-1.73894e-05
1.24683e-05
-2.43037e-05
1.53284e-05
-2.60983e-05
1.76705e-05
-2.56385e-05
1.97815e-05
-2.43421e-05
2.17856e-05
-2.27629e-05
2.37045e-05
-2.10738e-05
2.55171e-05
-1.93026e-05
2.71878e-05
-1.74181e-05
2.86782e-05
-1.53521e-05
2.99478e-05
-1.29984e-05
3.09514e-05
-1.02083e-05
3.16431e-05
-6.81262e-06
3.19885e-05
-2.63639e-06
3.19699e-05
2.51403e-06
3.16013e-05
8.81367e-06
3.09403e-05
1.63538e-05
3.00771e-05
2.50666e-05
2.89783e-05
3.46179e-05
2.71811e-05
4.40942e-05
2.17197e-05
5.18763e-05
6.5505e-05
-4.46009e-21
5.26287e-22
-5.84182e-20
9.44656e-21
-7.9551e-19
1.88028e-19
-3.0459e-18
8.29413e-19
-8.10879e-18
1.72866e-18
-2.14999e-17
2.92292e-18
-5.96537e-17
4.84016e-18
-1.59327e-16
7.70416e-18
-3.84737e-16
1.17738e-17
-8.28952e-16
1.31783e-17
-1.61532e-15
-1.46737e-17
-2.78228e-15
-1.28815e-16
-4.11335e-15
-2.68061e-16
-6.05827e-15
-3.47514e-16
-6.06281e-15
-5.46207e-15
-4.57582e-15
-1.23341e-14
-2.5379e-15
-1.33795e-14
-6.71755e-16
-9.85491e-15
-8.66052e-15
-4.94251e-20
2.2143e-20
-1.42874e-18
1.00321e-18
-6.86722e-18
5.97028e-18
-2.16797e-17
1.44119e-17
-7.98754e-17
3.42777e-17
-3.18744e-16
9.42763e-17
-1.03609e-15
2.09583e-16
-2.67779e-15
3.60295e-16
-5.7326e-15
5.57576e-16
-1.02395e-14
6.42187e-16
-1.52874e-14
-7.95267e-17
-2.16895e-14
7.67194e-16
-3.92184e-14
1.21424e-14
-5.97953e-14
1.6158e-14
-4.55921e-14
-2.67414e-14
-4.16007e-14
-3.06683e-14
-3.58679e-14
-3.40663e-14
-7.03526e-15
-5.05075e-14
-2.3506e-14
-2.01099e-18
8.38418e-19
-1.75876e-17
1.57577e-17
-3.745e-17
4.74994e-17
-8.54482e-17
7.86836e-17
-4.14372e-16
2.12513e-16
-2.1409e-15
7.98028e-16
-7.61557e-15
2.04962e-15
-2.05939e-14
3.97649e-15
-4.6717e-14
7.35063e-15
-9.22643e-14
1.24461e-14
-1.34088e-13
2.228e-15
-2.21487e-13
5.7298e-14
-5.68907e-13
3.34344e-13
-8.53172e-13
2.71156e-13
-6.19381e-13
-3.09677e-13
-4.38244e-13
-2.84006e-13
-3.32397e-13
-2.35128e-13
-8.37984e-14
-4.13123e-13
-1.58239e-13
-1.91833e-18
1.49469e-18
-1.74516e-17
2.21444e-17
-5.45691e-17
7.19703e-17
-2.09345e-16
1.8228e-16
-1.43947e-15
7.16129e-16
-7.04664e-15
3.27295e-15
-2.19704e-14
9.90228e-15
-6.44855e-14
2.67296e-14
-2.20262e-13
7.15335e-14
-6.7441e-13
1.52542e-13
-1.21859e-12
1.89229e-14
-2.3699e-12
6.95086e-13
-6.19428e-12
3.8524e-12
-8.8126e-12
2.526e-12
-6.21949e-12
-3.48379e-12
-3.9346e-12
-3.3853e-12
-2.73017e-12
-2.45594e-12
-7.92205e-13
-3.57223e-12
-1.60732e-12
-1.01934e-18
1.50546e-18
-5.57973e-18
2.59756e-17
-7.73071e-17
1.42066e-16
-4.81279e-16
5.78071e-16
-1.53196e-15
1.56456e-15
-1.75677e-14
9.63486e-15
-1.32215e-13
5.5119e-14
-2.20439e-13
2.27692e-13
-5.99253e-13
1.28988e-12
-3.73506e-12
5.07342e-12
-7.44152e-12
2.20185e-12
-2.0769e-11
7.83331e-12
-5.24699e-11
3.18068e-11
-6.94602e-11
1.59453e-11
-4.75269e-11
-3.08512e-11
-2.78381e-11
-3.0259e-11
-1.74977e-11
-2.09578e-11
-5.41918e-12
-2.47481e-11
-1.29173e-11
-4.07011e-16
2.77215e-16
-5.36126e-15
1.12762e-14
-9.82027e-15
4.40127e-14
-1.16554e-14
5.33624e-14
-1.79467e-14
4.24064e-14
-3.10247e-14
5.77981e-14
-1.41897e-13
1.5052e-13
-3.54807e-13
4.82965e-13
-1.96983e-11
4.12326e-12
-5.28931e-11
1.61251e-11
-9.39256e-11
4.40954e-11
-1.50833e-10
-1.83918e-13
-3.58855e-10
1.23729e-10
-4.34973e-10
6.40302e-11
-2.93052e-10
-2.13608e-10
-1.61877e-10
-2.11346e-10
-9.15884e-11
-1.42314e-10
-2.99093e-11
-1.38371e-10
-8.19696e-11
-2.76793e-16
3.86347e-16
-7.28717e-15
1.27876e-14
-1.99714e-14
7.39602e-14
-3.07058e-14
1.10673e-13
-3.9726e-14
1.07933e-13
-2.00908e-13
1.82285e-13
-4.21711e-14
4.16994e-13
7.9035e-13
2.0698e-13
3.95569e-12
1.11385e-12
-3.66519e-11
1.54407e-11
-4.67774e-10
7.71257e-11
-8.48005e-10
-8.47469e-11
-2.03619e-09
6.23765e-10
-2.16305e-09
-6.33889e-12
-1.49634e-09
-1.21069e-09
-7.83191e-10
-1.22173e-09
-3.97023e-10
-7.94817e-10
-1.36655e-10
-6.40976e-10
-4.26232e-10
-3.30766e-17
3.90437e-16
-4.3328e-16
4.64047e-15
-1.32728e-15
2.78123e-14
-2.096e-15
4.70358e-14
7.31402e-14
1.28797e-14
5.7654e-14
-4.28176e-13
-6.11247e-14
-2.26216e-13
-9.81199e-15
1.47794e-13
6.33666e-13
4.67148e-13
1.10588e-11
4.96676e-12
-7.60448e-11
4.52453e-11
-7.04695e-10
2.26494e-11
-7.19404e-09
7.0268e-09
-8.50927e-09
3.01688e-10
-6.62994e-09
-4.69764e-09
-3.51443e-09
-5.86822e-09
-1.64608e-09
-3.86452e-09
-6.1561e-10
-2.62996e-09
-1.95882e-09
1.16878e-05
-1.42711e-05
2.42559e-05
-2.99528e-05
3.20229e-05
-3.20636e-05
3.69467e-05
-3.10153e-05
4.08469e-05
-2.95326e-05
4.45052e-05
-2.79954e-05
4.81321e-05
-2.6386e-05
5.17038e-05
-2.46426e-05
5.51277e-05
-2.27245e-05
5.83038e-05
-2.0593e-05
6.11438e-05
-1.81914e-05
6.35735e-05
-1.54277e-05
6.55137e-05
-1.21485e-05
6.68965e-05
-8.1954e-06
6.76981e-05
-3.43807e-06
6.79317e-05
2.28051e-06
6.76701e-05
9.0752e-06
6.71048e-05
1.69192e-05
6.65573e-05
2.56141e-05
6.62151e-05
3.49601e-05
6.58331e-05
4.44762e-05
6.45354e-05
5.3174e-05
6.40479e-05
6.60051e-05
1.8351e-05
-2.0825e-05
2.80497e-05
-2.23285e-05
3.13735e-05
-1.59276e-05
3.40398e-05
-1.50112e-05
3.70963e-05
-1.53973e-05
4.06035e-05
-1.60176e-05
4.44351e-05
-1.65926e-05
4.84129e-05
-1.70363e-05
5.23464e-05
-1.7262e-05
5.60521e-05
-1.71698e-05
5.93547e-05
-1.66302e-05
6.20788e-05
-1.54553e-05
6.39355e-05
-1.32799e-05
6.52763e-05
-9.53599e-06
6.62035e-05
-4.36527e-06
6.68252e-05
1.65882e-06
6.71944e-05
8.70601e-06
6.75482e-05
1.65653e-05
6.83173e-05
2.4845e-05
6.96361e-05
3.36413e-05
7.12419e-05
4.28704e-05
7.26892e-05
5.17267e-05
6.19651e-05
7.4772e-05
6.55462e-06
1.24422e-14
4.45797e-06
1.47148e-14
3.96926e-06
2.13255e-13
4.73165e-06
5.28377e-13
5.93881e-06
9.00295e-13
7.52351e-06
1.59786e-12
9.60586e-06
2.97423e-12
1.22887e-05
5.04859e-12
1.56855e-05
6.10982e-12
1.99788e-05
4.95106e-12
2.54258e-05
2.80385e-12
3.21968e-05
1.06942e-12
3.99672e-05
1.99787e-13
4.76484e-05
-2.49552e-06
5.46466e-05
-1.76367e-06
6.08689e-05
5.03852e-07
6.41269e-05
5.79161e-06
6.62547e-05
1.44375e-05
6.84057e-05
2.2694e-05
7.10683e-05
3.09787e-05
7.36102e-05
4.03285e-05
7.60239e-05
4.93131e-05
5.74421e-05
8.05469e-05
-5.11819e-15
2.74856e-14
-8.23563e-15
5.63257e-14
-2.04373e-13
7.75594e-13
-5.81916e-13
1.75496e-12
-1.06464e-12
2.69188e-12
-2.04654e-12
4.03022e-12
-4.20249e-12
6.84692e-12
-7.98014e-12
1.16556e-11
-1.09487e-11
1.53761e-11
-1.02161e-11
1.4328e-11
-6.8031e-12
9.99538e-12
-3.14695e-12
5.4892e-12
-7.49275e-13
2.33803e-12
1.36649e-06
8.75367e-13
5.56618e-06
2.6804e-13
1.26847e-05
9.49866e-15
2.58527e-05
6.21434e-08
4.59977e-05
7.33556e-07
6.16769e-05
7.85518e-06
7.0768e-05
2.18875e-05
7.53998e-05
3.56968e-05
7.99841e-05
4.47288e-05
5.07219e-05
8.67042e-05
1.44702e-14
2.35484e-14
1.18445e-13
9.50872e-14
-1.05886e-13
1.17707e-12
-6.47089e-13
2.49806e-12
-1.49877e-12
3.61445e-12
-2.93134e-12
4.37001e-12
-6.09741e-12
4.66613e-12
-1.23364e-11
4.53491e-12
-1.91935e-11
4.06515e-12
-2.12552e-11
3.37741e-12
-1.80234e-11
2.59503e-12
-1.25876e-11
1.81895e-12
-7.83509e-12
1.13993e-12
-4.38688e-12
6.11351e-13
-2.2426e-12
2.52778e-13
-1.08965e-12
3.41364e-14
6.18312e-08
3.11048e-10
9.94237e-07
4.85505e-09
8.23869e-06
4.50794e-08
2.55535e-05
1.01286e-07
4.84433e-05
6.5421e-07
7.105e-05
7.6066e-06
2.42265e-05
8.92777e-05
2.24137e-14
6.80033e-15
1.79352e-13
1.12323e-14
-6.46164e-14
8.71038e-13
-6.10659e-13
1.90626e-12
-1.47088e-12
2.7797e-12
-2.42729e-12
3.35488e-12
-3.2785e-12
3.58284e-12
-3.88089e-12
3.49712e-12
-4.1724e-12
3.17107e-12
-4.16476e-12
2.69121e-12
-3.91697e-12
2.13897e-12
-3.50804e-12
1.58002e-12
-3.00068e-12
1.06475e-12
-2.45172e-12
6.36011e-13
-1.89794e-12
3.08532e-13
-1.39205e-12
8.56863e-14
3.05012e-10
4.57734e-12
5.14112e-09
2.25935e-11
4.9812e-08
4.61249e-10
1.4858e-07
2.77224e-09
6.6521e-07
1.03327e-08
5.72108e-06
6.53348e-08
2.31902e-07
2.30748e-05
6.71769e-16
2.56481e-15
1.51905e-14
3.24018e-15
-7.88308e-14
3.59485e-13
-4.16963e-13
9.02145e-13
-9.64353e-13
1.37957e-12
-1.59435e-12
1.69408e-12
-2.18123e-12
1.82376e-12
-2.63441e-12
1.79104e-12
-2.91093e-12
1.63697e-12
-3.01059e-12
1.40668e-12
-2.96129e-12
1.14059e-12
-2.80252e-12
8.69992e-13
-2.57007e-12
6.15732e-13
-2.28859e-12
3.95096e-13
-1.97927e-12
2.17419e-13
-1.66019e-12
8.78604e-14
-6.34752e-13
1.78511e-15
2.06698e-11
1.25414e-12
4.76998e-10
2.76548e-12
3.22313e-09
1.27418e-11
1.34994e-08
4.14663e-11
7.78553e-08
6.00722e-10
2.95539e-09
3.06323e-07
3.14562e-17
7.25907e-16
-1.1288e-16
8.58559e-16
-3.92752e-14
1.05939e-13
-1.80372e-13
2.9629e-13
-4.13037e-13
4.7281e-13
-6.89245e-13
5.8949e-13
-9.57073e-13
6.37281e-13
-1.17785e-12
6.25955e-13
-1.33109e-12
5.70966e-13
-1.41345e-12
4.88949e-13
-1.43359e-12
3.95108e-13
-1.40562e-12
3.02269e-13
-1.34001e-12
2.15388e-13
-1.2436e-12
1.3799e-13
-1.12423e-12
7.53249e-14
-9.92232e-13
3.05496e-14
-8.6304e-13
7.88842e-15
-2.94414e-13
-3.25341e-15
2.37928e-12
8.60135e-14
1.50203e-11
6.48074e-14
5.65046e-11
3.73601e-13
6.51201e-10
4.9588e-12
2.59588e-11
3.57262e-09
-1.04042e-17
1.34565e-16
-4.57572e-17
1.4674e-16
-1.13392e-14
2.27173e-14
-5.14655e-14
6.86853e-14
-1.18727e-13
1.12343e-13
-1.99935e-13
1.40491e-13
-2.80208e-13
1.50897e-13
-3.48258e-13
1.46495e-13
-3.97146e-13
1.30496e-13
-4.24505e-13
1.06541e-13
-4.3187e-13
7.83831e-14
-4.24327e-13
5.41397e-14
-4.01518e-13
3.32101e-14
-3.59312e-13
1.22816e-14
-2.96985e-13
-4.59848e-15
-2.1075e-13
-2.69629e-14
-1.37693e-13
-2.14285e-14
-8.00006e-14
-1.1074e-14
9.107e-15
-3.09409e-15
7.42359e-14
-5.84922e-16
4.44427e-13
7.83428e-16
5.33492e-12
-8.68026e-14
2.27925e-13
3.09803e-11
-3.59244e-18
1.36965e-17
-7.89554e-18
1.49559e-17
-2.10033e-15
3.2507e-15
-9.77309e-15
1.0468e-14
-2.27675e-14
1.7324e-14
-3.84724e-14
2.14801e-14
-5.39269e-14
2.26307e-14
-6.68389e-14
2.12698e-14
-7.51064e-14
1.71274e-14
-7.70871e-14
1.01195e-14
-7.16327e-14
-1.10815e-15
-6.33112e-14
-7.14437e-15
-5.08033e-14
-1.04536e-14
-2.53898e-14
-1.27353e-14
3.09759e-14
-2.47498e-14
1.36808e-13
-3.36217e-14
1.62987e-13
-3.25661e-14
1.84337e-13
-1.79692e-14
2.23626e-13
-1.43891e-14
5.52882e-13
-1.55138e-14
9.31166e-13
-1.51621e-14
9.8601e-13
3.73649e-15
-6.23344e-16
1.05722e-12
-3.80569e-19
5.79703e-19
-6.75664e-19
1.53231e-18
-2.37203e-16
2.41e-16
-1.15643e-15
8.62858e-16
-2.72927e-15
1.49031e-15
-4.60936e-15
1.84546e-15
-6.40215e-15
1.87212e-15
-7.76029e-15
1.55547e-15
-7.95258e-15
4.86912e-16
-5.94393e-15
-1.4409e-15
7.99865e-16
-7.85195e-15
8.32982e-15
-1.31243e-14
1.41998e-14
-1.23852e-14
2.81794e-14
-1.1962e-14
8.11788e-14
-7.56885e-15
1.19262e-13
-1.02076e-14
1.2963e-13
-1.17029e-14
1.07981e-13
-9.11331e-15
1.35043e-13
-4.82783e-15
3.79759e-13
-2.26015e-15
8.58889e-13
-8.03605e-16
9.79311e-13
-1.07514e-16
-7.23652e-17
8.75038e-13
-1.36796e-20
7.95152e-20
-5.23577e-20
5.66822e-19
-1.29986e-17
4.7391e-18
-7.08642e-17
3.72188e-17
-1.76965e-16
9.24113e-17
-3.03033e-16
1.21333e-16
-4.11057e-16
1.0338e-16
-4.45935e-16
1.01449e-17
-1.79413e-16
-1.91624e-16
1.16273e-15
-1.22381e-15
6.84062e-15
-2.98006e-15
1.01954e-14
-5.20552e-15
1.19742e-14
-4.17823e-15
9.29212e-15
-4.03702e-15
6.50176e-15
-1.08449e-15
1.06047e-14
-2.47956e-16
1.50843e-14
-1.72126e-16
1.67177e-14
-1.97464e-16
7.24189e-15
-1.66046e-16
1.68112e-15
-1.9913e-16
9.99535e-16
-1.89647e-16
1.0186e-15
-2.06188e-16
-2.04951e-16
1.0891e-15
-1.41561e-21
2.64435e-20
-1.36418e-20
2.05223e-19
-1.80487e-19
1.67348e-18
-2.20646e-18
1.05791e-17
-8.11004e-18
2.49665e-17
-1.50369e-17
2.91184e-17
-1.74375e-17
1.90163e-17
-2.2668e-18
-8.8051e-18
1.04455e-16
-5.18798e-17
6.02279e-16
-1.58921e-16
1.00599e-15
-3.37961e-16
2.19888e-15
-4.12574e-16
3.19661e-15
-3.89742e-16
1.42512e-15
-2.91719e-16
2.73324e-16
-1.67816e-16
1.5922e-16
-1.13868e-16
1.66639e-16
-1.01965e-16
1.96873e-16
-1.03734e-16
4.05645e-16
-1.2819e-16
7.36701e-16
-1.52563e-16
1.0961e-15
-1.4499e-16
1.45433e-15
-1.18709e-16
-8.37145e-17
1.81799e-15
-3.29261e-22
7.55508e-21
-3.35184e-21
6.11877e-20
-4.42445e-20
4.73333e-19
-4.49778e-19
2.47217e-18
-1.6174e-18
5.39036e-18
-2.72775e-18
5.37135e-18
-2.47142e-18
2.43038e-18
3.68208e-18
-2.12909e-19
1.06327e-17
-8.52809e-18
3.91631e-17
-3.84169e-17
8.33589e-17
-5.44942e-17
1.05306e-16
-5.25691e-17
1.17427e-16
-4.49011e-17
1.01499e-16
-2.91649e-17
8.92893e-17
-1.59948e-17
1.24165e-16
-1.25517e-17
1.60443e-16
-1.16008e-17
2.1368e-16
-1.04419e-17
2.80436e-16
-8.83146e-18
3.08872e-16
-6.20334e-18
3.11786e-16
-5.42788e-18
2.78371e-16
-5.53241e-18
-8.87435e-18
2.45595e-16
-6.39691e-23
1.75685e-21
-6.95698e-22
1.41845e-20
-9.00003e-21
1.01226e-19
-7.78364e-20
4.45689e-19
-2.64936e-19
8.66613e-19
-3.89402e-19
7.00564e-19
-2.48429e-19
2.29134e-19
2.51856e-19
-1.25145e-19
1.61125e-18
-1.32704e-18
7.0084e-18
-5.13289e-18
9.62416e-18
-7.74438e-18
1.15802e-17
-7.25631e-18
1.11513e-17
-5.21338e-18
7.51809e-18
-2.25105e-18
5.61246e-18
-6.55279e-19
6.19234e-18
-4.20544e-19
7.03054e-18
-4.03819e-19
7.59215e-18
-3.7959e-19
7.4303e-18
-3.44121e-19
6.83502e-18
-3.82399e-19
7.75395e-18
-8.16853e-19
1.38926e-17
-2.50888e-18
-1.05646e-17
4.22962e-17
-1.07388e-23
3.0662e-22
-1.27633e-22
2.34138e-21
-1.547e-21
1.48714e-20
-1.13e-20
5.51152e-20
-3.44326e-20
9.15445e-20
-4.13092e-20
5.57463e-20
-1.9182e-20
1.35953e-20
3.48878e-20
-2.42721e-20
1.91893e-19
-1.40822e-19
7.51494e-19
-4.84605e-19
1.1008e-18
-6.35293e-19
1.27488e-18
-5.66895e-19
9.11351e-19
-3.53442e-19
3.34916e-19
-1.21243e-19
1.52738e-19
-2.74748e-20
1.67028e-19
-1.64192e-20
1.95302e-19
-1.58715e-20
2.2199e-19
-1.64266e-20
2.46586e-19
-2.60731e-20
4.6174e-19
-1.0828e-19
1.92687e-18
-6.2376e-19
8.78188e-18
-2.77819e-18
-1.49395e-17
4.22599e-17
-1.6117e-24
3.55277e-23
-2.04261e-23
2.39326e-22
-2.14907e-22
1.26494e-21
-1.27084e-21
3.75975e-21
-3.22213e-21
5.02872e-21
-2.86957e-21
2.15651e-21
-9.86166e-22
-8.88908e-23
3.23651e-21
-2.60327e-21
1.63383e-20
-1.00957e-20
5.50652e-20
-2.55743e-20
7.45524e-20
-3.18574e-20
7.83031e-20
-2.86507e-20
4.58791e-20
-1.91541e-20
1.27991e-20
-8.02116e-21
5.03415e-21
-2.12041e-21
5.48876e-21
-9.17564e-22
6.46216e-21
-9.27917e-22
8.86352e-21
-1.62034e-21
2.58742e-20
-9.25494e-21
1.9021e-19
-8.10094e-20
1.45186e-18
-5.9293e-19
8.34013e-18
-3.35002e-18
-2.89841e-17
6.14931e-17
-1.9745e-25
2.52307e-24
-2.37475e-24
1.47408e-23
-1.97898e-23
5.90355e-23
-8.82902e-23
1.40054e-22
-1.71929e-22
1.86338e-22
-1.04402e-22
1.21005e-22
6.15087e-23
8.73681e-24
2.15032e-22
-1.27249e-22
9.49987e-22
-4.35212e-22
2.43501e-21
-7.21806e-22
3.24641e-21
-1.13496e-21
3.44748e-21
-1.16598e-21
2.30566e-21
-9.65166e-22
8.53198e-22
-5.16822e-22
2.76648e-22
-1.39991e-22
2.63689e-22
-4.95082e-23
3.44608e-22
-8.13798e-23
1.16391e-21
-5.47876e-22
1.14077e-20
-5.94404e-21
1.31004e-19
-6.30476e-20
1.18771e-18
-5.63879e-19
9.27326e-18
-4.95048e-18
-5.77685e-17
1.00609e-16
-1.6713e-26
2.55377e-25
-1.76469e-25
2.00609e-24
-1.06422e-24
9.60616e-24
-3.58304e-24
2.81223e-23
-6.60514e-24
5.08164e-23
-5.84286e-24
3.60466e-23
-5.65374e-25
2.85375e-24
1.00932e-23
-6.63207e-24
3.35121e-23
-1.12873e-23
6.49725e-23
-1.27719e-23
1.09379e-22
-3.00398e-23
1.34044e-22
-3.8805e-23
1.19795e-22
-3.36704e-23
5.54478e-23
-1.87737e-23
1.43907e-23
-4.25597e-24
1.25878e-23
-4.03962e-24
4.07484e-23
-2.46617e-23
4.79649e-22
-3.05192e-22
6.71285e-21
-3.79516e-21
8.51112e-20
-4.44335e-20
9.745e-19
-5.293e-19
1.22409e-17
-7.36191e-18
-9.46275e-17
1.51803e-16
-2.06624e-27
3.80601e-26
-2.87397e-26
3.03984e-25
-2.00499e-25
1.5303e-24
-8.00193e-25
4.79013e-24
-1.92495e-24
9.56141e-24
-1.79552e-24
6.26591e-24
-1.84991e-25
-5.25638e-26
4.44262e-25
-7.483e-25
6.8755e-25
-5.98535e-25
9.77494e-25
-5.31295e-25
3.08337e-24
-8.12121e-25
4.07044e-24
-8.11885e-25
3.85544e-24
-6.47693e-25
1.77689e-24
-3.15436e-25
7.83581e-25
-1.43249e-25
1.05134e-24
-7.91886e-25
1.53989e-23
-1.16039e-23
2.45991e-22
-1.60325e-22
3.60513e-21
-2.14533e-21
4.98483e-20
-2.68818e-20
7.83501e-19
-4.59295e-19
1.45902e-17
-9.44236e-18
-1.256e-16
1.88186e-16
-3.67258e-28
2.86685e-27
-5.03283e-27
2.32386e-26
-3.61268e-26
1.22695e-25
-1.50284e-25
4.08235e-25
-3.88328e-25
8.82328e-25
-3.25519e-25
8.52627e-26
2.6369e-26
-1.02991e-25
3.4493e-26
-8.55111e-26
3.05305e-26
-5.54209e-26
3.59727e-26
-3.85465e-26
6.56142e-26
-2.46267e-26
7.8652e-26
-1.02084e-26
6.25874e-26
-1.42528e-27
2.87064e-26
-1.42766e-27
2.49591e-26
-1.57486e-26
3.51515e-25
-2.99139e-25
6.78899e-24
-4.86625e-24
1.09993e-22
-7.37307e-23
1.71294e-21
-1.0402e-21
2.50917e-20
-1.35767e-20
5.68698e-19
-3.44429e-19
1.5174e-17
-1.0295e-17
-1.38975e-16
1.97252e-16
-3.16967e-29
3.54518e-30
-4.26568e-28
1.14978e-29
-3.16883e-27
9.84808e-30
-1.38059e-26
1.75356e-30
-3.79416e-26
-4.85705e-28
-4.59844e-27
-1.30533e-25
6.90873e-27
-1.72476e-26
2.74609e-27
-2.464e-27
2.3948e-27
-1.16989e-27
2.01064e-27
-1.23174e-27
1.35666e-27
-1.11803e-27
4.42389e-28
-5.90108e-28
1.57113e-28
-9.66689e-29
2.15359e-28
-2.74695e-28
5.41561e-27
-5.36976e-27
1.30011e-25
-1.01592e-25
2.45845e-24
-1.81524e-24
4.35146e-23
-2.98982e-23
7.03107e-22
-4.36281e-22
1.06182e-20
-5.75676e-21
3.53429e-19
-2.17776e-19
1.43094e-17
-9.65208e-18
-1.32576e-16
1.85861e-16
-4.30417e-32
2.99033e-33
-2.24754e-31
7.26133e-33
-2.68719e-31
5.35731e-33
-6.21797e-32
9.14349e-34
2.16724e-29
1.09462e-34
7.21057e-27
-6.15534e-33
2.20509e-28
-9.10473e-32
5.11718e-29
-1.12374e-30
5.89024e-29
-3.63095e-30
7.4796e-29
-2.70065e-30
7.52834e-29
-1.02574e-30
2.93314e-29
-5.89575e-31
1.00323e-29
-2.68318e-30
6.48184e-29
-6.64421e-29
1.7801e-27
-1.47988e-27
3.86853e-26
-3.13021e-26
8.0566e-25
-6.114e-25
1.53007e-23
-1.09118e-23
2.52476e-22
-1.63385e-22
3.81128e-21
-2.10315e-21
1.85078e-19
-1.14818e-19
9.82932e-18
-6.48511e-18
-1.00685e-16
1.32597e-16
-3.83309e-35
-6.04905e-51
-1.45775e-34
1.13867e-51
-1.49419e-34
7.1156e-49
-3.30451e-35
1.57169e-41
-4.9529e-36
-4.87916e-40
6.41782e-34
-3.85825e-37
5.54618e-33
-1.62882e-34
7.54003e-32
-1.93477e-33
1.76262e-31
-7.66771e-33
1.21573e-31
-1.5552e-32
4.71667e-32
-2.19637e-32
4.83022e-32
-3.97169e-32
5.02603e-31
-6.21829e-31
1.67052e-29
-1.59106e-29
4.32253e-28
-3.88806e-28
1.06218e-26
-8.87787e-27
2.38957e-25
-1.89083e-25
4.86911e-24
-3.65368e-24
8.16137e-23
-5.64071e-23
1.18861e-21
-6.87783e-22
8.07768e-20
-4.97028e-20
5.4177e-18
-3.96621e-18
-7.2694e-17
8.53258e-17
7.92405e-53
-1.75877e-51
-2.27544e-53
2.68248e-52
-1.96834e-50
2.50372e-49
-5.63395e-43
3.11684e-49
4.43155e-41
-4.46242e-44
2.11129e-38
-5.16528e-41
1.03335e-35
-3.47968e-37
1.30897e-34
-2.7988e-35
5.19331e-34
-1.70425e-34
1.06354e-33
-3.93453e-34
1.75431e-33
-5.63876e-34
4.66953e-33
-4.06078e-33
1.22553e-31
-1.26125e-31
3.63103e-30
-3.55405e-30
1.02304e-28
-9.42508e-29
2.67523e-27
-2.33773e-27
6.50384e-26
-5.39941e-26
1.42103e-24
-1.12516e-24
2.43409e-23
-1.81219e-23
3.33175e-22
-2.0807e-22
2.89352e-20
-1.75019e-20
2.78859e-18
-2.09627e-18
-4.76059e-17
5.27576e-17
2.30203e-53
-5.75034e-53
-5.19708e-54
-5.14737e-54
-6.68399e-51
4.43426e-50
-1.08013e-50
9.8149e-50
1.9393e-45
-1.35306e-46
2.74225e-42
-5.3106e-44
2.21116e-38
-6.98576e-40
1.95572e-36
-1.6097e-37
1.16005e-35
-1.16031e-36
2.58448e-35
-2.89556e-36
4.49685e-35
-1.94405e-35
5.8796e-34
-7.30654e-34
2.2594e-32
-2.38293e-32
7.30042e-31
-7.30141e-31
2.20927e-29
-2.12084e-29
6.22615e-28
-5.71207e-28
1.62424e-26
-1.4124e-26
3.78669e-25
-3.13039e-25
6.69832e-24
-5.25871e-24
8.60703e-23
-5.81429e-23
8.40959e-21
-4.94781e-21
1.21366e-18
-9.33626e-19
-2.85688e-17
2.9329e-17
3.86772e-55
-3.81829e-54
9.45127e-56
-2.00082e-53
-1.11347e-51
-9.7588e-54
-3.2087e-51
1.55187e-50
6.046e-48
-2.11229e-47
2.86604e-45
-6.90033e-45
4.22795e-41
-5.67098e-43
1.07436e-38
-2.59466e-41
7.54665e-38
-1.38508e-39
2.19949e-37
-6.04363e-38
2.1799e-36
-2.95283e-36
1.04246e-34
-1.16089e-34
3.85034e-33
-4.10522e-33
1.33955e-31
-1.38556e-31
4.39973e-30
-4.39923e-30
1.33216e-28
-1.27696e-28
3.67499e-27
-3.31256e-27
8.99494e-26
-7.5773e-26
1.63821e-24
-1.2944e-24
2.02664e-23
-1.42942e-23
1.95095e-21
-1.10365e-21
4.44031e-19
-3.55557e-19
-1.55122e-17
1.4869e-17
2.55004e-56
-1.50406e-55
3.40577e-55
-3.3777e-55
2.24548e-55
-3.56467e-56
-4.67127e-52
-1.59781e-53
8.94507e-49
-1.2813e-48
3.57792e-46
-6.40662e-46
3.361e-44
-6.84444e-44
1.81009e-42
-3.0544e-42
1.12525e-40
-1.63918e-40
5.78033e-39
-9.10103e-39
3.35562e-37
-4.00224e-37
1.48195e-35
-1.61774e-35
5.93306e-34
-6.52516e-34
2.25273e-32
-2.41787e-32
7.98833e-31
-8.23484e-31
2.57382e-29
-2.53341e-29
7.34354e-28
-6.6996e-28
1.82644e-26
-1.51443e-26
3.33547e-25
-2.51963e-25
4.11942e-24
-2.89434e-24
3.5419e-22
-1.91872e-22
1.37594e-19
-1.13587e-19
-7.42836e-18
6.66281e-18
9.70173e-58
-5.06841e-57
5.19421e-57
-2.61075e-57
3.73689e-58
-1.53881e-57
8.62681e-55
-2.35309e-55
4.79797e-50
-1.32906e-49
2.95037e-47
-4.00351e-47
3.81498e-45
-3.42937e-45
2.03719e-43
-2.75286e-43
1.28105e-41
-1.71517e-41
8.21122e-40
-8.86369e-40
4.04838e-38
-4.40957e-38
1.84888e-36
-2.12691e-36
8.36181e-35
-9.269e-35
3.44408e-33
-3.75732e-33
1.2906e-31
-1.33094e-31
4.34182e-30
-4.22514e-30
1.24302e-28
-1.1043e-28
3.00526e-27
-2.36358e-27
5.28412e-26
-3.68068e-26
6.77372e-25
-4.63046e-25
4.95836e-23
-2.61157e-23
3.51317e-20
-3.01004e-20
-3.07905e-18
2.56206e-18
3.15884e-59
-1.43375e-58
1.26542e-59
-8.46814e-59
1.42461e-59
-8.91577e-59
5.64417e-57
-6.65049e-57
4.46662e-51
-1.08955e-50
1.63796e-48
-2.57383e-48
1.70017e-46
-2.53728e-46
1.64115e-44
-1.92534e-44
1.19441e-42
-1.31619e-42
7.05616e-41
-8.33007e-41
3.98971e-39
-4.70257e-39
2.1577e-37
-2.38383e-37
1.03965e-35
-1.12449e-35
4.62247e-34
-4.87799e-34
1.77201e-32
-1.73172e-32
6.05258e-31
-5.53282e-31
1.68456e-29
-1.39275e-29
3.79753e-28
-2.7694e-28
6.20559e-27
-3.98215e-27
8.66217e-26
-5.74485e-26
5.35667e-24
-2.87378e-24
7.28462e-21
-6.5964e-21
-1.08937e-18
8.27351e-19
8.40604e-61
-2.73775e-60
4.83531e-61
-1.81774e-60
6.96805e-61
6.19306e-61
1.38137e-58
-3.52914e-58
3.11154e-52
-5.47434e-52
9.28509e-50
-1.27268e-49
1.12866e-47
-1.36414e-47
1.02001e-45
-1.19415e-45
8.14988e-44
-9.31864e-44
5.92832e-42
-6.49679e-42
3.7726e-40
-4.08973e-40
2.11526e-38
-2.22547e-38
1.09094e-36
-1.09052e-36
5.11016e-35
-4.88215e-35
1.93242e-33
-1.70487e-33
6.53522e-32
-5.39139e-32
1.72263e-30
-1.28875e-30
3.55892e-29
-2.46401e-29
5.33991e-28
-3.35557e-28
8.41299e-27
-5.16006e-27
4.57957e-25
-2.62438e-25
1.21532e-21
-1.22358e-21
-3.24885e-19
2.1929e-19
1.45763e-62
-5.03139e-62
8.15546e-63
5.17506e-63
-7.11758e-63
2.03268e-60
5.93048e-60
6.32186e-60
1.30576e-53
-1.67347e-53
3.96285e-51
-5.00016e-51
5.29132e-49
-6.02311e-49
5.58356e-47
-6.04675e-47
5.10225e-45
-5.3285e-45
4.06005e-43
-4.01686e-43
2.86253e-41
-2.77482e-41
1.71128e-39
-1.59854e-39
9.05776e-38
-7.9783e-38
4.31547e-36
-3.61373e-36
1.58419e-34
-1.27346e-34
5.21414e-33
-3.94268e-33
1.28357e-31
-9.03381e-32
2.51162e-30
-1.73272e-30
3.51688e-29
-2.22184e-29
5.73e-28
-2.77606e-28
3.15524e-26
-2.06343e-26
1.65691e-22
-2.07496e-22
-8.0478e-20
4.63499e-20
2.40154e-64
-5.1788e-64
-3.11545e-65
2.23442e-62
-1.74278e-62
1.59587e-60
-8.42533e-62
2.05766e-59
3.32185e-55
-5.32829e-55
1.3282e-52
-1.5484e-52
2.02064e-50
-2.11316e-50
2.45882e-48
-2.39069e-48
2.53787e-46
-2.25966e-46
2.1795e-44
-1.80061e-44
1.67779e-42
-1.33063e-42
1.05531e-40
-8.421e-41
5.64066e-39
-4.361e-39
2.68791e-37
-1.99522e-37
9.8462e-36
-7.56123e-36
3.11712e-34
-2.28955e-34
7.22502e-33
-5.1005e-33
1.37849e-31
-7.5701e-32
1.75318e-30
-7.03496e-31
2.26117e-29
-9.28286e-30
1.83002e-27
-1.96552e-27
1.96065e-23
-3.43486e-23
-1.62119e-20
7.48091e-21
2.01433e-66
8.52782e-66
-7.97397e-65
1.28713e-62
-9.49261e-63
8.37159e-61
-2.1288e-61
1.63872e-59
8.65837e-57
-1.20703e-56
3.44936e-54
-3.39856e-54
6.02898e-52
-4.97346e-52
8.31749e-50
-6.13897e-50
9.2327e-48
-6.65868e-48
8.38794e-46
-5.92226e-46
6.89134e-44
-4.69965e-44
4.74421e-42
-3.29585e-42
2.61382e-40
-1.77645e-40
1.24602e-38
-7.76602e-39
4.85042e-37
-3.20533e-37
1.47343e-35
-9.00718e-36
3.21934e-34
-1.59709e-34
4.53338e-33
-1.14746e-33
4.08188e-32
-5.8965e-33
5.56517e-31
-3.54886e-31
1.3137e-28
-2.76858e-28
2.07404e-24
-4.95408e-24
-2.5494e-21
8.5481e-22
-5.13219e-68
8.23546e-66
-1.75662e-65
4.18727e-63
-3.02331e-63
2.83057e-61
-1.25277e-61
7.63326e-60
1.55346e-58
-1.13615e-58
6.20984e-56
-4.28919e-56
1.18331e-53
-7.5168e-54
1.79638e-51
-1.04326e-51
2.29927e-49
-1.22291e-49
2.33826e-47
-1.30657e-47
2.06378e-45
-1.18269e-45
1.5672e-43
-7.88846e-44
8.94471e-42
-4.81424e-42
4.055e-40
-2.36986e-40
1.69483e-38
-8.98762e-39
4.66867e-37
-2.07884e-37
7.66722e-36
-2.3974e-36
4.94499e-35
-5.78582e-36
2.52485e-34
-6.15813e-35
1.81399e-32
-7.49823e-32
2.10343e-29
-2.90797e-28
1.69821e-25
-5.17705e-25
-2.87615e-22
5.83928e-23
-2.8206e-68
3.10816e-66
2.02761e-64
7.645e-64
-3.1204e-64
4.67364e-62
-3.84084e-62
1.78955e-60
1.17889e-60
-3.27296e-61
6.24338e-58
-2.6037e-58
1.45544e-55
-5.07234e-56
2.51168e-53
-8.35034e-54
3.49733e-51
-1.29473e-51
4.28698e-49
-1.57862e-49
4.31373e-47
-1.42552e-47
3.11677e-45
-1.22572e-45
2.01385e-43
-7.90983e-44
1.02427e-41
-4.47377e-42
3.88257e-40
-1.6505e-40
8.60327e-39
-3.42103e-39
7.86086e-38
-8.9011e-39
1.79024e-37
-2.84737e-38
2.52102e-36
-1.61195e-35
3.9084e-33
-5.58138e-32
1.70848e-29
-5.02236e-28
9.46507e-27
-5.91192e-26
-2.07932e-23
1.26812e-24
1.75546e-66
7.29919e-69
1.97366e-64
1.7043e-67
3.34622e-63
2.66511e-66
-4.31492e-63
2.06911e-67
1.42876e-62
-1.07948e-64
2.88442e-60
-2.92823e-61
7.71152e-58
-7.81716e-59
1.60404e-55
-1.71825e-56
2.97965e-53
-2.99872e-54
4.18055e-51
-4.52988e-52
4.21273e-49
-6.36388e-50
3.93763e-47
-6.1881e-48
2.6907e-45
-5.51603e-46
1.56955e-43
-3.48521e-44
5.77178e-42
-1.48189e-42
9.755e-41
-2.3058e-41
2.27416e-40
-1.31776e-40
8.12852e-40
-2.55282e-39
6.00241e-37
-4.78542e-36
2.30043e-33
-2.6655e-32
1.90857e-29
-4.7082e-28
7.13989e-28
-1.51448e-26