/*--------------------------------*- C++ -*----------------------------------*\
| =========                 |                                                 |
| \\      /  F ield         | OpenFOAM: The Open Source CFD Toolbox           |
|  \\    /   O peration     | Version:  v2012                                 |
|   \\  /    A nd           | Website:  www.openfoam.com                      |
|    \\/     M anipulation  |                                                 |
\*---------------------------------------------------------------------------*/
FoamFile
{
    version     2.0;
    format      ascii;
    class       volScalarField;
    location    "0.45";
    object      alpha.water;
}
// * * * * * * * * * * * * * * * * * * * * * * * * * * * * * * * * * * * * * //

dimensions      [0 0 0 0 0 0 0];


internalField   nonuniform List<scalar> 
2268
(
1
1
1
1
1
1
1
1
1
1
1
1
1
1
1
1
1
1
1
1
0.976776
0.921327
0.927418
1
1
1
1
1
1
1
1
1
1
1
1
1
1
1
1
1
1
1
1
0.997732
0.921245
0.995753
1
1
1
1
1
1
1
1
1
1
1
1
1
1
1
1
1
1
1
1
1
0.971095
0.995794
1
1
1
1
1
1
1
1
1
1
1
1
1
1
1
1
1
1
1
1
1
0.999999
0.997965
1
1
1
1
1
1
1
1
1
1
1
1
1
1
1
1
1
1
1
1
1
0.999998
0.997948
1
1
1
1
1
1
1
1
1
1
1
1
1
1
1
1
1
1
1
1
1
1
0.998109
1
1
1
1
1
1
1
1
1
1
1
1
1
1
1
1
1
1
1
1
1
1
0.998123
1
0.999999
0.999997
0.999997
0.999997
0.999998
0.999999
0.999999
0.999999
1
1
1
1
1
1
1
1
1
1
1
1
1
0.998148
6.71765e-17
3.66769e-16
6.45597e-15
2.44886e-14
4.94929e-14
9.56246e-14
2.20737e-13
5.5593e-13
1.35447e-12
3.00721e-12
5.97771e-12
1.05814e-11
1.58705e-11
2.22136e-11
3.34998e-11
4.37336e-11
3.73943e-11
2.54908e-11
2.54908e-11
2.36737e-16
8.65916e-15
4.89579e-14
1.13914e-13
2.65847e-13
9.41752e-13
3.32251e-12
9.30981e-12
2.1226e-11
4.06609e-11
6.12945e-11
6.62812e-11
4.69215e-11
3.16367e-11
4.50299e-11
5.05934e-11
4.92969e-11
3.59957e-11
2.4946e-11
9.19661e-15
1.62246e-13
3.75566e-13
4.57948e-13
1.07665e-12
6.06371e-12
2.5334e-11
7.45124e-11
1.76216e-10
3.63003e-10
5.3305e-10
4.85943e-10
2.77324e-10
3.29749e-10
4.12319e-10
3.60786e-10
3.61003e-10
4.04027e-10
1.73272e-10
1.32512e-14
1.85985e-13
5.3399e-13
9.59109e-13
3.98405e-12
2.41539e-11
8.3418e-11
2.27452e-10
7.17017e-10
2.5465e-09
5.1688e-09
5.74882e-09
4.52132e-09
4.85751e-09
5.93198e-09
4.73983e-09
4.31159e-09
4.58456e-09
2.26577e-09
1.3685e-14
1.38787e-14
3.10239e-14
1.32682e-13
1.0397e-12
3.13412e-11
3.91473e-10
1.08076e-09
9.34e-10
4.43922e-09
3.23354e-08
4.19099e-08
6.03908e-08
5.47327e-08
6.1908e-08
4.60875e-08
3.76074e-08
3.64203e-08
2.06277e-08
1.13641e-12
5.86378e-11
1.59529e-10
1.75034e-10
1.38729e-10
2.8239e-10
3.78173e-10
1.09282e-09
1.0761e-07
4.26627e-07
4.9728e-07
7.57399e-07
7.3722e-07
4.82826e-07
4.99755e-07
3.49336e-07
2.5684e-07
2.23619e-07
1.39954e-07
2.02241e-12
8.04103e-11
4.58274e-10
6.64997e-10
7.10881e-10
1.02225e-09
4.21739e-09
4.50976e-09
4.64873e-09
1.92966e-07
5.22627e-06
8.07477e-06
6.97306e-06
3.78679e-06
3.7452e-06
2.21309e-06
1.46669e-06
1.13371e-06
7.62604e-07
2.48112e-12
1.48401e-11
7.92597e-11
1.19646e-10
2.79601e-11
-3.5976e-09
-2.77549e-09
1.34992e-09
-2.22177e-17
9.66261e-10
8.60213e-07
1.36367e-05
7.17448e-06
1.90178e-05
1.95452e-05
1.219e-05
7.27509e-06
4.92885e-06
3.48829e-06
0.999998
0.999956
0.999912
0.999912
0.999926
0.999942
0.999958
0.99997
0.999981
0.999989
0.999994
0.999998
1
1
1
1
1
1
1
1
1
1
0.999798
0.937276
0.866159
0.816379
0.825801
0.846011
0.869109
0.892508
0.915628
0.937815
0.958307
0.97624
0.990375
0.998594
0.999991
0.999999
1
1
1
1
1
1
1
1
0.200139
0.133991
0.0953626
0.104564
0.121704
0.143287
0.170031
0.203092
0.243519
0.293128
0.355055
0.434434
0.537108
0.654917
0.770539
0.882439
0.983937
1
1
1
1
1
1
-1.8182e-10
-2.83406e-10
-6.21724e-09
-1.58058e-08
-2.65008e-08
-4.74437e-08
-9.13867e-08
-1.63662e-07
-2.13161e-07
-1.90395e-07
-1.22627e-07
-5.56024e-08
-1.33107e-08
0.0103755
0.0535648
0.126579
0.248288
0.476258
0.803571
0.999999
1
1
1
-2.84585e-10
-1.06615e-09
-2.03498e-08
-4.69568e-08
-7.21114e-08
-1.09991e-07
-1.93442e-07
-3.46669e-07
-4.91773e-07
-5.06323e-07
-4.04913e-07
-2.69702e-07
-1.59016e-07
-8.60989e-08
-4.36675e-08
-2.08944e-08
-2.2206e-08
0.00404303
0.0554368
0.202531
0.420593
0.648676
0.912027
-2.83685e-10
-1.56954e-09
-2.3955e-08
-5.43634e-08
-8.15296e-08
-1.02804e-07
-1.15886e-07
-1.20332e-07
-1.17116e-07
-1.08083e-07
-9.5344e-08
-8.0795e-08
-6.58798e-08
-5.16067e-08
-3.86344e-08
-2.73339e-08
-3.02794e-09
1.31016e-07
2.88981e-06
1.66373e-05
0.000337707
0.0237134
0.124601
-9.8945e-11
-1.6671e-10
-1.46834e-08
-3.49858e-08
-5.43535e-08
-6.97799e-08
-7.97163e-08
-8.39698e-08
-8.32627e-08
-7.87932e-08
-7.18575e-08
-6.35835e-08
-5.47938e-08
-4.6067e-08
-3.78076e-08
-3.0285e-08
-1.12241e-08
-3.73029e-10
-9.59319e-08
-8.03785e-08
2.23443e-07
3.06354e-06
2.18851e-05
-3.96423e-11
-4.6044e-11
-5.46957e-09
-1.47806e-08
-2.42177e-08
-3.18532e-08
-3.68742e-08
-3.92271e-08
-3.92818e-08
-3.76085e-08
-3.48076e-08
-3.13904e-08
-2.76608e-08
-2.38278e-08
-2.00717e-08
-1.65872e-08
-1.35728e-08
-4.35634e-09
-9.61063e-11
8.80666e-11
-3.22003e-10
-5.26347e-09
1.28068e-07
-1.13395e-11
-1.16801e-11
-1.50367e-09
-4.48526e-09
-7.64853e-09
-1.02046e-08
-1.18507e-08
-1.25872e-08
-1.25399e-08
-1.18964e-08
-1.08632e-08
-9.65482e-09
-8.30775e-09
-6.78816e-09
-5.13855e-09
-3.35307e-09
-2.02362e-09
-1.08907e-09
-5.8195e-28
3.91965e-11
8.72351e-10
3.76161e-09
8.03504e-09
-2.07236e-12
-1.91801e-12
-3.06671e-10
-9.81332e-10
-1.70565e-09
-2.27196e-09
-2.60941e-09
-2.72537e-09
-2.63443e-09
-2.36161e-09
-1.93731e-09
-1.5243e-09
-1.09479e-09
-4.92507e-10
4.28565e-11
1.70218e-09
2.37113e-09
2.3696e-09
2.257e-09
3.80553e-09
8.10465e-09
9.25923e-09
9.44333e-09
-2.05447e-13
-1.8958e-13
-4.23216e-11
-1.43197e-10
-2.50149e-10
-3.28331e-10
-3.67616e-10
-3.692e-10
-3.20022e-10
-2.05262e-10
9.23825e-29
1.53722e-10
2.58245e-10
4.15112e-10
1.06153e-09
1.8348e-09
1.97141e-09
1.5184e-09
1.42037e-09
2.53113e-09
6.09661e-09
9.44911e-09
9.59135e-09
-8.46044e-15
-1.9011e-14
-3.05643e-12
-1.14175e-11
-2.0673e-11
-2.69213e-11
-2.88297e-11
-2.54101e-11
-8.48909e-12
2.07003e-11
1.60762e-10
3.04783e-10
3.08149e-10
2.50306e-10
1.27747e-10
1.61436e-10
2.28883e-10
2.3807e-10
1.48455e-10
1.63971e-11
1.03736e-11
1.0365e-11
1.03624e-11
-1.13373e-15
-6.93462e-15
-5.89814e-14
-4.80077e-13
-1.24137e-12
-1.70301e-12
-1.52165e-12
-1.5727e-13
3.10037e-12
2.14946e-11
3.16337e-11
5.80849e-11
9.28928e-11
5.48772e-11
1.5197e-11
2.83103e-12
2.82057e-12
2.89219e-12
4.50007e-12
7.6182e-12
1.10554e-11
1.40451e-11
1.68407e-11
-3.70437e-16
-2.48887e-15
-2.05482e-14
-1.33806e-13
-3.26871e-13
-3.95938e-13
-2.69471e-13
1.28938e-13
4.59e-13
1.48709e-12
3.23638e-12
4.00338e-12
3.88629e-12
3.23215e-12
2.14732e-12
2.47893e-12
2.82026e-12
3.26393e-12
4.18843e-12
4.16963e-12
3.96898e-12
3.4462e-12
2.66549e-12
-1.04535e-16
-7.37962e-16
-5.75493e-15
-3.07978e-14
-6.91363e-14
-7.11589e-14
-3.3361e-14
2.05288e-15
7.18347e-14
3.48076e-13
5.02497e-13
5.025e-13
4.47624e-13
3.01971e-13
1.7318e-13
1.44198e-13
1.43688e-13
1.39699e-13
1.27875e-13
9.85595e-14
1.00295e-13
1.35672e-13
3.33217e-13
-2.41043e-17
-1.70394e-16
-1.22151e-15
-5.48645e-15
-1.09322e-14
-9.08359e-15
-3.06224e-15
1.22559e-15
1.04698e-14
4.13872e-14
6.51989e-14
6.36084e-14
4.728e-14
2.09311e-14
6.20697e-15
4.2216e-15
4.32388e-15
4.33575e-15
4.28183e-15
5.81601e-15
1.74685e-14
6.89124e-14
3.17155e-13
-4.18133e-18
-2.80241e-17
-1.78342e-16
-6.71909e-16
-1.13915e-15
-7.09943e-16
-1.77619e-16
1.79374e-16
1.0339e-15
3.62667e-15
4.88972e-15
4.51463e-15
2.91864e-15
1.03824e-15
2.41279e-16
1.5053e-16
1.5345e-16
1.71027e-16
3.34876e-16
1.84129e-15
1.26991e-14
6.56732e-14
4.67658e-13
-4.81952e-19
-2.85278e-18
-1.50834e-17
-4.54547e-17
-6.18546e-17
-2.70457e-17
1.09687e-18
1.79252e-17
6.98966e-17
1.79023e-16
2.3004e-16
2.13463e-16
1.48092e-16
6.4642e-17
1.75572e-17
7.73212e-18
8.36133e-18
1.76909e-17
1.27352e-16
1.29133e-15
1.07023e-14
7.41763e-14
7.89251e-13
-3.40376e-20
-1.74829e-19
-6.99948e-19
-1.68043e-18
-2.26864e-18
-1.49728e-18
-1.10029e-19
8.35999e-19
2.87252e-18
4.81146e-18
7.80077e-18
8.24189e-18
7.02023e-18
3.87637e-18
1.06392e-18
3.92048e-19
7.69609e-19
6.3586e-18
7.73619e-17
8.77813e-16
8.99023e-15
1.00572e-13
1.25339e-12
-3.4225e-21
-2.36473e-20
-1.13208e-19
-3.34964e-19
-6.12868e-19
-4.40627e-19
-3.53883e-20
4.42825e-20
7.33085e-20
8.3412e-20
1.98593e-19
2.61195e-19
2.30368e-19
1.3064e-19
2.98773e-20
3.2836e-20
2.47437e-19
3.37511e-18
4.38068e-17
5.36721e-16
7.46628e-15
1.24983e-13
1.64313e-12
-5.05978e-22
-3.55766e-21
-1.79173e-20
-5.66383e-20
-1.14278e-19
-7.57287e-20
6.25337e-22
5.04838e-21
3.93009e-21
3.47483e-21
5.22231e-21
5.21652e-21
4.18623e-21
2.06041e-21
1.01088e-21
6.86585e-21
1.11357e-19
1.59077e-18
2.19619e-17
2.82973e-16
5.64191e-15
1.36681e-13
1.8297e-12
-3.77481e-23
-2.69796e-22
-1.4265e-21
-4.79086e-21
-1.04526e-20
-1.01938e-21
1.24255e-21
5.43675e-22
3.50376e-22
2.44692e-22
1.55461e-22
6.47633e-23
8.93561e-24
9.94373e-24
1.2363e-22
2.55279e-21
4.24733e-20
6.64363e-19
9.55392e-18
1.26318e-16
3.68066e-15
1.37191e-13
1.84927e-12
-4.61694e-26
-1.32349e-25
-1.13652e-25
-2.04207e-26
5.7034e-24
1.54435e-21
2.06202e-22
1.42598e-23
6.92193e-24
7.3847e-24
6.77972e-24
3.61881e-24
5.978e-25
2.02175e-24
4.22927e-23
8.02883e-22
1.47122e-20
2.4817e-19
3.66261e-18
4.82959e-17
2.04924e-15
1.00501e-13
1.41313e-12
-3.84764e-29
-8.28529e-29
-6.13542e-29
-1.05641e-29
-1.27406e-30
7.18569e-29
5.20298e-28
6.4519e-27
2.09939e-26
1.56813e-26
6.0033e-27
3.54156e-27
1.79521e-26
4.7844e-25
1.0823e-23
2.33594e-22
4.64855e-21
8.45678e-20
1.2762e-18
1.62359e-17
9.61915e-16
5.9618e-14
9.73136e-13
7.68476e-47
-1.28802e-47
-8.0865e-45
-1.80147e-37
5.61231e-36
2.16821e-33
9.20543e-31
1.10415e-29
4.40523e-29
8.97447e-29
1.27642e-28
2.45676e-28
4.3104e-27
1.10341e-25
2.72881e-24
6.30057e-23
1.36086e-21
2.66843e-20
4.14812e-19
4.97146e-18
3.7487e-16
3.33929e-14
6.48097e-13
2.20748e-47
-3.00928e-48
-2.82392e-45
-3.54435e-45
2.47793e-40
2.87554e-37
1.94446e-33
1.5792e-31
9.66632e-31
2.23416e-30
3.24187e-30
2.59559e-29
8.33412e-28
2.37085e-26
6.34127e-25
1.58725e-23
3.6979e-22
7.77583e-21
1.25862e-19
1.42224e-18
1.20229e-16
1.60041e-14
3.90522e-13
3.61996e-49
5.72973e-50
-4.96552e-46
-1.10754e-45
8.15031e-43
3.15846e-40
3.85917e-36
8.90589e-34
6.42154e-33
1.61667e-32
1.17784e-31
4.67895e-30
1.52585e-28
4.70235e-27
1.37468e-25
3.7224e-24
9.22687e-23
2.04773e-21
3.43706e-20
3.76032e-19
3.12845e-17
6.54855e-15
2.17896e-13
2.3956e-50
2.21256e-49
1.08564e-49
-1.73833e-46
1.28835e-43
4.22209e-41
3.31998e-39
1.51553e-37
8.0765e-36
3.60371e-34
1.83556e-32
7.17004e-31
2.5511e-29
8.64799e-28
2.75141e-26
7.99206e-25
2.0644e-23
4.68613e-22
7.93089e-21
8.71591e-20
6.49339e-18
2.3147e-15
1.10018e-13
9.15838e-52
3.7155e-51
1.96068e-52
1.77507e-49
7.54469e-45
3.74869e-42
4.04599e-40
1.83436e-38
9.88235e-37
5.52207e-35
2.40113e-33
9.74242e-32
3.94307e-30
1.46359e-28
4.96587e-27
1.52042e-25
3.97877e-24
8.85753e-23
1.44989e-21
1.66515e-20
1.06345e-18
6.90678e-16
4.90843e-14
3.03066e-53
1.41433e-53
8.65465e-54
1.2852e-51
7.83881e-46
2.29342e-43
1.96025e-41
1.59536e-39
1.00017e-37
5.16443e-36
2.58316e-34
1.24995e-32
5.43835e-31
2.2004e-29
7.72006e-28
2.42718e-26
6.25108e-25
1.31326e-23
2.00709e-22
2.53066e-21
1.38219e-19
1.72584e-16
1.90456e-14
8.40428e-55
4.61483e-55
4.84785e-55
3.69548e-53
6.20624e-47
1.45299e-44
1.44014e-42
1.09142e-40
7.48511e-39
4.76584e-37
2.69766e-35
1.36225e-33
6.39558e-32
2.75633e-30
9.65865e-29
3.04764e-27
7.54759e-26
1.47612e-24
2.08671e-23
3.00235e-22
1.47049e-20
3.61012e-17
6.3474e-15
1.57821e-56
9.70113e-57
-6.76332e-57
1.88747e-54
3.01949e-48
7.04025e-46
7.56381e-44
6.64954e-42
5.20485e-40
3.62725e-38
2.28257e-36
1.23715e-34
6.01314e-33
2.66608e-31
9.19538e-30
2.86908e-28
6.75287e-27
1.27488e-25
1.70982e-24
2.58612e-23
1.31237e-21
6.50186e-18
1.79559e-15
2.85587e-58
-5.65955e-59
-2.21345e-56
-6.87366e-56
9.0904e-50
2.72076e-47
3.28392e-45
3.30368e-43
2.91159e-41
2.18967e-39
1.50836e-37
8.65193e-36
4.28251e-34
1.91984e-32
6.70467e-31
2.0486e-29
4.62996e-28
8.726e-27
1.09778e-25
1.34764e-24
1.03408e-22
1.08848e-18
4.24851e-16
2.83502e-60
-2.45005e-58
-1.73332e-56
-2.22664e-55
2.86476e-51
8.29487e-49
1.13213e-46
1.28068e-44
1.20924e-42
9.61054e-41
7.07301e-39
4.45896e-37
2.29196e-35
1.0372e-33
3.90319e-32
1.16623e-30
2.55719e-29
3.70008e-28
3.36975e-27
4.48198e-26
1.06482e-23
1.77897e-19
8.22428e-17
-9.66371e-62
-1.41663e-58
-9.07073e-57
-1.7655e-55
6.37727e-53
1.79232e-50
2.62068e-48
3.23052e-46
3.49837e-44
3.10643e-42
2.45627e-40
1.71169e-38
9.16977e-37
3.97474e-35
1.62479e-33
4.5006e-32
7.8348e-31
5.50004e-30
2.79968e-29
1.97965e-27
2.60544e-24
2.50385e-20
1.24798e-17
-9.27659e-62
-4.62931e-59
-3.06003e-57
-8.1906e-56
5.91008e-55
2.23095e-52
3.90428e-50
5.40957e-48
6.32852e-46
6.74575e-44
6.07914e-42
4.03148e-40
2.44624e-38
1.19761e-36
4.494e-35
1.0263e-33
1.16038e-32
2.76403e-32
3.44652e-31
5.89228e-28
3.20257e-24
2.61368e-21
1.3647e-18
-3.48915e-62
-8.48681e-60
-5.04333e-58
-1.91268e-56
1.68244e-57
1.33948e-54
2.60303e-52
4.27535e-50
6.61311e-48
8.03383e-46
7.22032e-44
6.18185e-42
3.9668e-40
2.2301e-38
8.1642e-37
1.67521e-35
4.31531e-35
1.42981e-34
9.9272e-32
4.44015e-28
4.83691e-24
3.26303e-22
9.61069e-20
-8.21296e-65
-1.89584e-63
-2.86923e-62
-2.20206e-63
5.52916e-61
1.4952e-57
3.98082e-55
8.7255e-53
1.51746e-50
2.28288e-48
3.19331e-46
3.08784e-44
2.73732e-42
1.71816e-40
7.255e-39
1.11932e-37
6.37844e-37
1.27819e-35
2.64142e-32
1.57824e-28
3.72829e-24
8.52483e-23
3.44373e-21
-2.70149e-65
-4.56832e-64
-6.23767e-63
-1.06683e-63
-1.47645e-66
1.42681e-61
4.58066e-59
1.41922e-56
3.73045e-54
7.22682e-52
1.29283e-49
1.53781e-47
1.4373e-45
9.45903e-44
7.19895e-43
8.79431e-42
9.33744e-41
7.02739e-39
6.27947e-36
1.01087e-29
6.42219e-25
1.32247e-23
3.55838e-23
-6.1251e-68
-7.68915e-67
-1.46523e-65
-2.37984e-64
0
1.10404e-69
9.48747e-65
4.63527e-62
1.61188e-59
5.32011e-57
1.19498e-54
2.16417e-52
2.24985e-50
1.25083e-48
7.4963e-47
1.71283e-45
5.40185e-44
7.68881e-42
6.82143e-39
8.70266e-34
4.07377e-28
8.05261e-26
4.14495e-25
-6.21188e-86
-2.93441e-85
-3.17369e-84
-1.16096e-86
-8.71501e-85
-1.50708e-82
-7.02513e-85
1.22523e-78
8.0548e-74
5.8615e-70
2.96196e-66
5.97757e-63
7.68595e-60
1.73435e-57
2.65273e-55
1.63761e-53
8.54883e-52
7.04367e-50
1.28967e-46
1.20881e-37
4.99015e-31
3.84299e-28
3.03509e-27
-2.01816e-86
-6.57578e-86
-7.46667e-85
-5.63021e-103
-5.14927e-101
-3.11023e-100
-3.40358e-97
-9.98468e-94
-6.27263e-94
-1.54719e-89
-7.90085e-87
-5.66636e-89
1.71856e-80
1.65587e-76
3.16631e-74
8.99436e-71
-5.2307e-70
1.11599e-66
2.94348e-86
9.97756e-59
2.44593e-41
7.72377e-36
3.06402e-34
0.999264
0.997714
0.999758
0.673711
0.999825
0.999447
0.999992
0.974954
1
0.999999
0.999998
0.999999
0.999999
0.999999
0.999998
0.999999
0.999999
0.999998
0.999997
0.999969
0.242957
0.327425
0.419518
0.543144
4.57933e-05
7.00053e-05
0.000531276
0.00590713
-1.86696e-06
-3.73816e-06
-9.31746e-07
6.95349e-07
9.6999e-09
6.32738e-09
5.60066e-09
9.66591e-09
8.44282e-09
5.90533e-09
4.2608e-10
4.77744e-10
8.67317e-09
6.14204e-09
2.83936e-09
1.94741e-10
1.0365e-11
1.03645e-11
1.14043e-11
1.65352e-11
1.82963e-11
1.85776e-11
1.86539e-11
1.86866e-11
2.55453e-12
2.62803e-12
2.86323e-12
3.18708e-12
6.17731e-13
9.1985e-13
1.42371e-12
2.01254e-12
7.30822e-13
1.21904e-12
2.11905e-12
3.57079e-12
1.20195e-12
2.12151e-12
3.7944e-12
8.48568e-12
2.17144e-12
4.06398e-12
7.16492e-12
1.76167e-11
3.48204e-12
6.60741e-12
1.13837e-11
2.71627e-11
4.54827e-12
8.45036e-12
1.47589e-11
3.42244e-11
5.01747e-12
9.14508e-12
1.63085e-11
3.51687e-11
5.02877e-12
9.13413e-12
1.62641e-11
2.85891e-11
3.85058e-12
7.21487e-12
1.48839e-11
2.98335e-11
2.82018e-12
5.97822e-12
1.46912e-11
3.58701e-11
2.06482e-12
5.1927e-12
1.63859e-11
4.06579e-11
1.44569e-12
4.5052e-12
1.66518e-11
4.43121e-11
9.65344e-13
3.51037e-12
1.26848e-11
2.57403e-11
5.7666e-13
2.20099e-12
6.63728e-12
1.19954e-11
2.93013e-13
1.13007e-12
2.94523e-12
4.71233e-12
1.2559e-13
4.62224e-13
1.00363e-12
1.49199e-12
4.51314e-14
1.52078e-13
2.8031e-13
3.89707e-13
1.35356e-14
4.10617e-14
6.46157e-14
7.82943e-14
3.35696e-15
9.0089e-15
1.20921e-14
1.18734e-14
6.7624e-16
1.61627e-15
1.90303e-15
1.61831e-15
1.06609e-16
2.45409e-16
2.95583e-16
3.66367e-16
1.23031e-17
3.31557e-17
4.64949e-17
2.77986e-17
9.93228e-19
3.50081e-18
4.31348e-18
2.77546e-18
4.57408e-20
1.97543e-19
1.02624e-20
5.03204e-20
4.95775e-22
3.14882e-21
6.15267e-24
-1.76075e-21
4.90083e-27
1.1297e-28
7.45019e-27
-7.32041e-24
4.66288e-29
1.89936e-33
2.4739e-32
-1.35274e-26
2.48439e-36
2.93595e-41
0
-1.6974e-34
-8.18967e-12
1.47032e-27
5.2303e-12
1.71488e-11
-5.91248e-27
-2.46895e-10
-4.2186e-08
-2.40796e-08
-7.1129e-09
-3.1348e-13
9.66261e-10
1.27903e-08
-9.43308e-09
0.000106927
0.000106385
7.32641e-05
3.5638e-05
1.94447e-05
1.39414e-05
0.713268
0.357086
0.062912
0.00532117
0.0296899
0.165794
0.442949
0.52999
0.469218
0.385464
0.388153
0.360486
0.227371
0.0836099
0.00912202
0.000309515
0.000152738
6.83943e-05
4.88387e-05
0.999631
0.976515
0.806156
0.68073
0.721997
0.863856
0.978092
0.996963
0.992032
0.981838
0.979793
0.979074
0.976495
0.888597
0.506918
0.110036
0.00137212
0.000423723
0.000230736
0.999972
0.999882
0.999601
0.998987
0.999132
0.999589
0.999795
0.999856
0.999877
0.999891
0.999904
0.999912
0.999918
0.999918
0.999918
0.854037
0.27954
0.00552378
0.00231674
0.99994
0.999926
0.999854
0.999523
0.999564
0.999784
0.999852
0.999875
0.999889
0.999902
0.999912
0.999917
0.999918
0.999918
0.999918
0.999918
0.860541
0.222336
0.00496676
0.653136
0.70077
0.725804
0.760898
0.761643
0.747266
0.708535
0.644593
0.604618
0.613117
0.68884
0.876679
0.999918
0.999918
0.999918
0.999918
0.999908
0.593681
0.0329296
0.0207015
0.0350535
0.04578
0.060904
0.061804
0.0561369
0.0430487
0.0268282
0.0190483
0.021306
0.0412757
0.105184
0.303394
0.755518
0.999138
0.999908
0.999903
0.750323
0.071009
4.74742e-06
8.64433e-06
1.43321e-05
1.93932e-05
1.93254e-05
1.83137e-05
1.68742e-05
1.49731e-05
1.54264e-05
2.20947e-05
5.30724e-05
0.000169345
0.000658656
0.128167
0.64479
0.997913
0.999794
0.726429
0.0816012
6.72941e-08
1.43454e-07
2.51029e-06
3.50181e-06
1.58098e-06
6.46635e-07
6.56356e-07
7.01932e-07
8.24168e-07
1.31658e-06
3.55403e-06
1.78556e-05
8.32919e-05
0.000660245
0.262302
0.906635
0.999218
0.612222
0.0665477
4.97918e-10
1.50542e-09
2.14433e-06
3.09035e-06
6.91507e-07
1.91121e-08
2.47413e-08
3.29794e-08
4.74471e-08
9.08072e-08
2.99835e-07
1.872e-06
9.78386e-06
7.35281e-05
0.0707462
0.748031
0.997502
0.472086
0.0566003
2.85527e-11
1.41972e-10
1.38316e-08
1.89052e-08
1.31072e-09
8.42173e-10
1.19888e-09
1.88399e-09
3.96545e-09
8.06068e-09
2.76684e-08
1.93174e-07
1.08772e-06
7.82052e-06
0.00305573
0.591316
0.967387
0.375755
0.0557981
2.41652e-11
2.17486e-11
2.16945e-11
3.79682e-11
7.25485e-11
1.58386e-10
2.33568e-10
3.32905e-10
1.33448e-09
2.04551e-09
4.46023e-09
2.25281e-08
1.24051e-07
8.10025e-07
1.46589e-08
0.345064
0.931162
0.374388
0.0557952
1.89855e-11
2.13739e-11
1.87503e-11
2.58854e-11
5.22898e-11
1.15742e-10
1.70526e-10
2.41003e-10
1.0762e-09
1.30662e-09
1.81088e-09
4.4122e-09
1.84513e-08
8.39518e-08
6.34354e-09
0.158909
0.878552
0.440128
0.0557952
4.53691e-12
8.37031e-12
1.68586e-11
3.81416e-11
8.71229e-11
1.74405e-10
2.33477e-10
2.43203e-10
2.64238e-10
4.51551e-10
3.02771e-08
1.92465e-08
1.02627e-08
6.34354e-09
4.20324e-09
0.0492736
0.814973
0.557406
0.0580235
5.2296e-12
2.05928e-11
5.18178e-11
9.0255e-11
1.48781e-10
2.29174e-10
2.67747e-10
2.52258e-10
2.53872e-10
5.49865e-09
4.83789e-08
4.80971e-08
1.02512e-08
4.2064e-09
4.00335e-09
0.000462842
0.635003
0.659776
0.114749
8.74282e-12
6.21075e-11
4.53159e-10
5.78528e-10
4.90734e-10
3.79853e-10
2.9664e-10
2.54128e-10
5.24268e-10
2.12039e-09
2.93985e-08
4.77089e-08
3.14401e-08
4.06218e-09
4.02666e-09
4.02666e-09
0.41542
0.659776
0.190725
1.47225e-11
1.04009e-10
8.12398e-10
2.31723e-09
2.05374e-09
1.07281e-09
4.18327e-10
2.63661e-10
5.11547e-10
4.63725e-10
5.61443e-10
1.04085e-08
3.91025e-08
7.94512e-09
4.0024e-09
0.0199956
0.369794
0.591551
0.20108
2.92237e-11
1.6757e-10
1.68666e-10
3.87952e-09
1.03549e-08
7.92078e-09
3.0388e-09
3.73229e-10
3.77012e-10
3.87898e-10
4.00862e-10
7.8242e-09
3.61611e-08
8.2791e-09
4.04278e-09
0.261469
0.426675
0.229072
0.177224
4.2024e-11
2.72863e-10
2.3153e-10
4.26271e-10
3.11779e-08
3.37572e-08
9.87188e-09
4.00342e-10
3.87898e-10
1.3371e-07
4.18315e-06
2.51748e-06
6.52241e-08
8.71653e-09
0.0271785
0.41632
0.426675
0.264339
0.177224
4.74778e-11
5.40738e-10
2.80571e-10
9.72268e-10
3.52913e-08
3.69105e-08
9.94432e-09
4.51724e-10
4.12966e-10
2.38549e-06
5.30544e-06
5.1914e-06
8.21269e-07
1.63176e-08
0.0326419
0.328146
0.426675
0.344086
0.177224
4.7164e-11
7.56105e-10
1.2933e-09
2.79302e-09
3.58298e-08
3.69016e-08
1.09069e-08
4.98698e-10
4.51724e-10
3.64803e-06
5.2786e-06
4.3369e-06
3.0612e-07
7.21808e-08
1.40432e-07
0.00684488
0.157635
0.310217
0.216814
1.32753e-10
5.63235e-10
3.3179e-09
3.18544e-09
3.47701e-08
2.31595e-08
5.24736e-09
1.97737e-07
1.15468e-05
9.97522e-06
2.36325e-06
7.02352e-07
4.5795e-07
6.70597e-05
0.000146064
0.000136259
0.000136259
0.0895806
0.216398
3.39839e-10
5.47173e-10
4.03306e-09
6.50847e-09
4.50144e-09
3.97229e-09
4.20695e-09
1.31396e-05
2.2482e-05
1.01121e-05
7.02457e-07
6.49289e-07
6.45878e-07
4.99142e-05
0.000112484
0.000124003
0.000136259
0.0255892
0.214863
4.4477e-10
5.09416e-10
1.44111e-09
9.18933e-09
4.45697e-09
4.99334e-10
6.91487e-06
2.99123e-05
2.2703e-05
3.62453e-06
6.49289e-07
6.45773e-07
6.46357e-07
6.46357e-07
0.000654429
0.00022384
0.00013707
0.031406
0.182653
2.79232e-10
5.1705e-10
3.04994e-10
1.027e-08
4.92436e-09
3.24037e-10
3.10075e-05
3.09967e-05
7.62469e-06
1.77339e-06
0.000119676
0.00157172
0.011512
0.0154826
0.00651606
0.000268468
0.00268918
0.0314881
0.054837
1.08451e-10
3.46813e-10
1.82154e-10
1.00969e-08
4.29187e-09
1.73497e-10
3.4547e-05
2.47608e-05
1.77339e-06
1.76779e-06
1.77339e-06
0.018775
0.148349
0.0947492
0.00418854
0.000515368
0.00699308
0.00872649
0.0078572
5.70119e-11
1.68545e-10
1.73401e-10
5.7074e-09
3.8636e-09
7.95939e-11
3.54333e-05
2.57978e-05
2.17836e-06
1.7679e-06
1.76783e-06
0.100562
0.172668
0.164486
0.0304804
0.000858504
0.00314975
0.00173681
0.00347713
2.65848e-11
9.39157e-11
3.97397e-10
1.58179e-10
3.97737e-10
6.9558e-11
5.44441e-05
7.80001e-05
1.52272e-05
1.7679e-06
1.90349e-06
0.104471
0.175737
0.175628
0.0720405
0.0015837
0.00175045
0.00141507
0.00196298
1.19631e-11
3.63976e-11
2.82425e-10
1.58149e-10
3.60399e-10
5.25415e-11
2.06254e-06
0.000181028
3.72179e-05
2.06601e-06
1.96736e-06
0.052825
0.175628
0.175741
0.103184
0.00241275
0.00152734
0.00133517
0.00133732
4.86433e-12
1.25042e-11
4.68306e-11
7.99422e-11
5.18612e-10
3.77947e-11
5.25414e-11
0.000258612
0.000423696
5.37346e-05
2.13383e-06
0.0120511
0.169061
0.175628
0.121351
0.0040364
0.00135136
0.00118145
0.000940543
1.58901e-12
4.98979e-12
1.80515e-11
5.11594e-11
2.65943e-10
2.56585e-11
3.1736e-11
0.000282514
0.000482344
0.000243776
5.71724e-06
1.86055e-05
0.158228
0.175216
0.123156
0.00455302
0.00128934
0.00118242
0.000848918
4.91048e-13
2.2316e-12
9.52618e-12
3.82308e-11
2.4092e-11
2.40143e-11
2.51789e-11
0.000144018
0.000482491
0.000359033
1.86081e-05
3.90354e-05
0.150986
0.174463
0.129884
0.00586372
0.00121236
0.00125848
0.00125277
1.92348e-13
1.56267e-12
5.3619e-12
1.45721e-11
1.14097e-11
1.16891e-11
4.61591e-07
5.01154e-07
0.000445803
0.000293708
3.32934e-05
2.51803e-05
0.156036
0.174002
0.154423
0.0100022
0.0012575
0.00124441
0.00125639
1.27138e-13
1.65677e-12
5.67959e-12
1.01199e-11
1.02012e-11
1.1104e-11
7.9583e-07
6.81887e-07
3.96216e-05
0.000214134
2.89256e-05
3.57744e-06
0.144502
0.175035
0.175412
0.0403185
0.00126359
0.00124328
0.00124411
1.07992e-13
2.06881e-12
8.63e-12
1.27384e-11
1.23317e-11
3.58856e-11
6.9752e-07
4.38483e-06
1.45224e-06
6.96225e-05
2.40409e-05
1.81126e-06
0.0927806
0.175663
0.175362
0.0807714
0.00128515
0.0012429
0.001245
7.33394e-14
2.11488e-12
9.99713e-12
2.00505e-11
2.93746e-10
3.52389e-08
2.60898e-08
6.36676e-08
1.39587e-06
6.35025e-06
1.49273e-05
8.10423e-07
0.00547869
0.125928
0.17555
0.0724522
0.0016458
0.00128751
0.00133979
2.10773e-14
1.20258e-12
1.00417e-11
2.4786e-11
1.63166e-10
1.71961e-08
2.54792e-08
1.68887e-08
8.80529e-07
9.67579e-07
8.34285e-06
2.52278e-07
-3.99997e-08
0.00746109
0.0295219
0.0341068
0.00467017
0.00387215
0.00332404
1.58875e-15
3.35373e-13
7.19538e-12
2.73245e-11
4.18651e-11
3.62588e-09
2.02919e-08
1.687e-08
1.41683e-08
1.66064e-08
1.2704e-06
1.33052e-07
1.71575e-07
1.02899e-05
8.96075e-05
0.00179431
0.00557794
0.00405412
0.00170854
2.40113e-18
3.00931e-14
2.38544e-12
2.35023e-11
4.74098e-11
4.74104e-11
1.77033e-09
2.23564e-08
1.26698e-08
2.32404e-07
2.77699e-07
1.19222e-07
-1.58736e-09
7.78537e-07
1.20093e-05
9.02268e-05
0.00304971
0.00147302
0.000195955
2.71541e-22
3.13839e-17
1.54308e-13
3.48614e-12
2.35371e-11
5.17381e-11
2.9565e-09
1.06053e-08
4.48366e-09
8.33312e-13
9.76228e-13
2.64971e-12
9.26843e-12
3.38975e-08
2.56694e-06
1.5754e-05
0.000210878
0.000272851
0.000152684
-1.09706e-29
8.79065e-23
1.14403e-16
1.99037e-13
7.62365e-12
4.90768e-11
7.99153e-22
8.34864e-19
9.54213e-17
7.98967e-13
3.14129e-11
7.06872e-12
1.89974e-07
8.31506e-07
6.49127e-06
2.4787e-05
6.06021e-05
0.000141039
0.000118388
-8.05875e-33
-1.15589e-35
-9.55975e-39
-5.55826e-42
7.84104e-15
7.10956e-14
1.45381e-47
-1.76206e-34
-7.00464e-22
-8.23955e-19
2.15428e-12
-2.15567e-12
-5.81114e-13
1.9611e-06
9.60208e-06
2.45831e-05
4.00527e-05
8.67122e-05
0.000118408
)
;

boundaryField
{
    leftWall
    {
        type            zeroGradient;
    }
    rightWall
    {
        type            zeroGradient;
    }
    lowerWall
    {
        type            zeroGradient;
    }
    atmosphere
    {
        type            inletOutlet;
        inletValue      uniform 0;
        value           nonuniform List<scalar> 
46
(
0
0
0
0
0
0
0
0
0
0
0
0
0
0
0
0
0
0
0
0
0
0
0
0
0
0
0
0
0
0
0
0
0
0
0
0
0
0
0
0
1.9611e-06
9.60208e-06
2.45831e-05
4.00527e-05
8.67122e-05
0.000118408
)
;
    }
    defaultFaces
    {
        type            empty;
    }
}


// ************************************************************************* //
