/*--------------------------------*- C++ -*----------------------------------*\
| =========                 |                                                 |
| \\      /  F ield         | OpenFOAM: The Open Source CFD Toolbox           |
|  \\    /   O peration     | Version:  v2012                                 |
|   \\  /    A nd           | Website:  www.openfoam.com                      |
|    \\/     M anipulation  |                                                 |
\*---------------------------------------------------------------------------*/
FoamFile
{
    version     2.0;
    format      ascii;
    class       volScalarField;
    location    "0.45";
    object      epsilon;
}
// * * * * * * * * * * * * * * * * * * * * * * * * * * * * * * * * * * * * * //

dimensions      [0 2 -3 0 0 0 0];


internalField   nonuniform List<scalar> 
2268
(
0.0355034
0.111698
0.213985
0.308153
0.392527
0.462804
0.525132
0.582005
0.634714
0.683471
0.727623
0.765849
0.796263
0.816282
0.821857
0.814886
0.792864
0.749127
0.682603
0.596726
0.496354
0.396929
0.300075
0.0439354
0.0726726
0.115426
0.156487
0.189405
0.216891
0.241105
0.263324
0.284224
0.304012
0.322574
0.339604
0.354708
0.367489
0.377698
0.388217
0.400494
0.414574
0.431477
0.450111
0.458303
0.393671
0.347943
0.0535351
0.0702089
0.102399
0.130989
0.154086
0.173145
0.189685
0.204759
0.218943
0.232456
0.245295
0.25736
0.268559
0.278924
0.288835
0.300048
0.314722
0.334966
0.363653
0.402044
0.440049
0.433136
0.550705
0.0595562
0.0742799
0.0997717
0.122373
0.140819
0.156099
0.169386
0.181517
0.192946
0.203851
0.214257
0.22415
0.233574
0.24275
0.252287
0.263695
0.279151
0.301204
0.332904
0.376067
0.425096
0.466773
0.76858
0.0678039
0.0800624
0.100525
0.118641
0.133727
0.146559
0.157985
0.168576
0.178616
0.188206
0.197367
0.206131
0.214625
0.223185
0.232535
0.244114
0.260036
0.282913
0.315738
0.360758
0.417191
0.500909
0.997207
0.0754319
0.0862475
0.102389
0.116567
0.128837
0.139843
0.150084
0.159821
0.169141
0.178053
0.186562
0.194728
0.202739
0.211008
0.220323
0.23209
0.248346
0.271679
0.305104
0.351596
0.415126
0.534889
1.20287
0.0809419
0.0915837
0.104036
0.114748
0.124688
0.134359
0.143874
0.153174
0.16216
0.170754
0.178944
0.186817
0.194604
0.202773
0.212153
0.224114
0.240617
0.264212
0.298019
0.345935
0.416421
0.56792
1.42146
0.0838338
0.0953655
0.104621
0.112458
0.120691
0.129535
0.138697
0.147844
0.156725
0.165207
0.17327
0.181023
0.188737
0.196919
0.206419
0.218565
0.235242
0.258957
0.292952
0.341969
0.418005
0.593661
1.72808
0.118824
0.496323
0.951687
1.44209
1.92242
2.33506
2.6479
2.86188
3.00338
3.11453
3.22875
3.32046
3.27339
2.95728
2.36612
1.66414
1.03396
0.526958
0.069728
0.241005
0.706494
0.995557
1.11881
1.14479
1.12227
1.09063
1.06655
1.05086
1.04702
1.06937
1.11959
1.15408
1.12263
0.998376
0.820895
0.653501
0.479315
0.144055
0.412596
0.804506
1.01869
1.08355
1.09207
1.08934
1.09447
1.08806
1.05289
1.0159
1.02066
1.08288
1.16047
1.19724
1.14745
1.03426
0.925458
0.785864
0.355239
0.545194
0.869205
1.11982
1.26438
1.3862
1.52443
1.66074
1.71145
1.63233
1.49688
1.40122
1.39991
1.44114
1.46788
1.42687
1.3341
1.27431
1.19814
0.741158
0.631897
0.911281
1.25639
1.58069
1.95845
2.41835
2.85786
3.05303
2.91903
2.61884
2.31147
2.09211
1.94382
1.83229
1.71758
1.61446
1.62646
1.68619
1.35137
0.684647
0.954484
1.41412
1.9937
2.76749
3.76192
4.71903
5.17613
5.0342
4.59271
4.02736
3.40193
2.81997
2.36122
2.02651
1.84147
1.9268
2.19581
2.17852
0.744664
1.02209
1.59214
2.41851
3.59191
5.15484
6.68662
7.51685
7.54798
7.12723
6.42309
5.34357
4.10208
3.11023
2.41045
2.02375
2.13101
2.6351
3.12436
1.20606
1.08748
1.67027
2.57979
3.84021
5.44192
7.02419
8.35578
8.97104
8.74945
8.0886
6.79407
4.95586
3.62515
2.83233
2.17231
2.22809
2.91062
4.01813
0.0835778
0.0976989
0.103457
0.108615
0.115451
0.123694
0.13264
0.141712
0.15054
0.158943
0.166902
0.174555
0.182213
0.190424
0.200051
0.212389
0.229224
0.252943
0.286895
0.336578
0.415379
0.575754
1.07033
0.0782899
0.0931907
0.0970455
0.101983
0.109223
0.117946
0.127261
0.136577
0.145554
0.154045
0.162065
0.169783
0.177541
0.185917
0.195758
0.20829
0.225175
0.24861
0.281708
0.329326
0.40153
0.527293
0.78917
0.0753197
0.0819367
0.0903001
0.0983024
0.106806
0.116034
0.125526
0.134877
0.143834
0.152292
0.160294
0.168033
0.175891
0.184482
0.19458
0.207386
0.224403
0.247681
0.279831
0.324229
0.387448
0.484701
0.642996
0.13999
0.102691
0.100664
0.104526
0.110412
0.118198
0.126887
0.135769
0.144438
0.152711
0.160585
0.16823
0.17621
0.185813
0.196632
0.210241
0.228645
0.25316
0.284319
0.324676
0.379701
0.457757
0.563419
0.436681
0.235869
0.215313
0.207493
0.19662
0.189287
0.186361
0.186687
0.189192
0.193059
0.197547
0.201687
0.203569
0.196884
0.199681
0.211461
0.22967
0.257485
0.292343
0.333873
0.386618
0.45466
0.531595
0.520331
0.275681
0.260431
0.243734
0.229958
0.22136
0.217307
0.216774
0.218987
0.223406
0.229617
0.237221
0.245745
0.254912
0.267307
0.281799
0.294219
0.293018
0.297542
0.335012
0.390839
0.466593
0.53565
0.47396
0.271478
0.256807
0.247793
0.240306
0.235674
0.234108
0.235342
0.239132
0.245364
0.254042
0.265239
0.279018
0.295447
0.31462
0.335253
0.354677
0.370736
0.390224
0.422038
0.460794
0.481967
0.53632
0.439852
0.259043
0.24146
0.236255
0.234006
0.234002
0.236176
0.240467
0.246886
0.255572
0.266782
0.280843
0.298059
0.318609
0.342368
0.368538
0.395643
0.42189
0.447988
0.476358
0.507717
0.54008
0.582189
0.431854
0.250876
0.225959
0.220436
0.220598
0.223666
0.228841
0.235878
0.244793
0.255782
0.269185
0.285419
0.304896
0.327884
0.35436
0.383814
0.415208
0.447116
0.478511
0.510068
0.543438
0.578171
0.613291
0.431407
0.244027
0.212163
0.204734
0.205283
0.209686
0.216532
0.225321
0.235963
0.248617
0.263607
0.281355
0.302291
0.326735
0.354747
0.385983
0.419616
0.454429
0.48929
0.524053
0.559733
0.59658
0.63302
0.432654
0.236777
0.199771
0.190259
0.190181
0.194701
0.202046
0.211526
0.222949
0.236409
0.252187
0.270672
0.292279
0.317346
0.345999
0.378025
0.412792
0.449314
0.486567
0.524081
0.562136
0.600803
0.638867
0.432341
0.228666
0.188315
0.177069
0.176006
0.179967
0.187011
0.196343
0.207704
0.221134
0.236867
0.255254
0.276687
0.301508
0.329901
0.361782
0.396732
0.434028
0.472847
0.512609
0.553106
0.594066
0.634431
0.42872
0.219703
0.177511
0.165021
0.162958
0.166068
0.172359
0.180997
0.191682
0.20442
0.219406
0.236957
0.257438
0.281196
0.308465
0.339287
0.373448
0.410496
0.449849
0.490976
0.533456
0.576773
0.619838
0.421385
0.210125
0.167253
0.153984
0.151062
0.153263
0.15861
0.166263
0.175909
0.187528
0.201287
0.217471
0.236426
0.258498
0.283969
0.312987
0.34553
0.381393
0.420242
0.461697
0.505321
0.550512
0.596164
0.410745
0.200252
0.157531
0.14387
0.14028
0.14164
0.146019
0.152591
0.161042
0.171336
0.183618
0.198148
0.215254
0.235285
0.258562
0.285329
0.315724
0.349762
0.387352
0.428308
0.472302
0.518772
0.566659
0.397642
0.190402
0.148386
0.134627
0.130557
0.131197
0.134676
0.140195
0.147443
0.156375
0.16712
0.179918
0.195085
0.212972
0.233937
0.258306
0.286359
0.318305
0.354277
0.394307
0.438238
0.485622
0.535484
0.383097
0.180869
0.139888
0.126231
0.121839
0.121889
0.124579
0.129139
0.135266
0.14291
0.152188
0.163324
0.176627
0.192457
0.211202
0.233268
0.259057
0.288955
0.32331
0.362376
0.406195
0.454466
0.506295
0.368157
0.171925
0.132128
0.118692
0.11409
0.113664
0.115682
0.119403
0.124534
0.131023
0.138976
0.14861
0.160226
0.174196
0.190944
0.210946
0.234722
0.262823
0.295805
0.334147
0.378106
0.427532
0.481588
0.353806
0.163831
0.125221
0.112042
0.107295
0.106479
0.107927
0.11093
0.115202
0.120691
0.127493
0.135819
0.145971
0.158331
0.173361
0.191607
0.2137
0.240357
0.272336
0.31035
0.354878
0.405927
0.462675
0.340928
0.156839
0.119287
0.106334
0.101458
0.100303
0.101262
0.103652
0.107194
0.111834
0.117663
0.124883
0.133797
0.144804
0.158403
0.175207
0.195964
0.221548
0.252931
0.291065
0.33667
0.389909
0.449945
0.330289
0.151187
0.114449
0.101623
0.0965893
0.0951134
0.0956374
0.0974982
0.100423
0.104351
0.109367
0.115667
0.123556
0.133447
0.145877
0.16153
0.181264
0.20612
0.237287
0.275975
0.323161
0.379177
0.443149
0.322542
0.147093
0.110819
0.0979613
0.0926998
0.0908892
0.0910064
0.0924001
0.0947964
0.098128
0.102469
0.108011
0.115057
0.124035
0.135519
0.150262
0.169236
0.193649
0.224918
0.264532
0.313747
0.373084
0.441628
0.318235
0.144746
0.108485
0.095383
0.0897883
0.0876032
0.0873196
0.0882864
0.0902223
0.0930486
0.0968273
0.101741
0.108091
0.11632
0.127034
0.141056
0.159467
0.183648
0.215254
0.256072
0.307667
0.370783
0.444474
0.317821
0.144301
0.107507
0.0938986
0.0878357
0.0852155
0.0845193
0.0850818
0.0866058
0.088996
0.0922988
0.096685
0.102454
0.110055
0.120129
0.133559
0.151538
0.175616
0.207697
0.249884
0.304091
0.371321
0.450639
0.321672
0.145871
0.107907
0.093487
0.0867991
0.0836697
0.0825375
0.0827058
0.083851
0.0858553
0.088746
0.0926791
0.0979472
0.105007
0.114523
0.127438
0.145047
0.16907
0.20166
0.24526
0.302166
0.373698
0.459
0.330087
0.149528
0.109663
0.0940914
0.0866092
0.082891
0.0812948
0.0810719
0.0818613
0.0835158
0.0860395
0.0895706
0.0943917
0.100961
0.109963
0.12239
0.139631
0.163564
0.196594
0.241516
0.30105
0.376906
0.468401
0.343302
0.155285
0.1127
0.0956166
0.0871698
0.0827872
0.0807017
0.0800899
0.0805412
0.0818725
0.0840606
0.087223
0.0916285
0.0977313
0.10623
0.118152
0.134968
0.158702
0.191999
0.238013
0.299932
0.379942
0.477658
0.361488
0.163083
0.11689
0.0979295
0.0883599
0.0832506
0.0806601
0.0796667
0.0797978
0.0808281
0.0827033
0.0855175
0.0895222
0.095162
0.103138
0.114504
0.13079
0.154144
0.187432
0.234166
0.298037
0.38181
0.485561
0.384746
0.172779
0.122047
0.100862
0.0900375
0.0841619
0.0810674
0.0797097
0.0795428
0.0802938
0.0818747
0.0843535
0.0879609
0.0931258
0.100542
0.11127
0.126879
0.149608
0.182515
0.229451
0.29464
0.381529
0.490854
0.413094
0.184139
0.127935
0.104218
0.0920464
0.0853958
0.0818199
0.0801292
0.0796945
0.080191
0.0814953
0.083648
0.0868556
0.0915244
0.0983288
0.108318
0.12307
0.144879
0.176944
0.223421
0.289071
0.378129
0.492222
0.446475
0.196856
0.134282
0.107785
0.0942249
0.0868277
0.0828183
0.080842
0.080179
0.0804509
0.0814986
0.0833346
0.0861385
0.0902872
0.0964229
0.105563
0.11926
0.139815
0.170505
0.215727
0.280751
0.370681
0.488289
0.484797
0.210579
0.140796
0.111346
0.0964151
0.0883411
0.0839727
0.0817744
0.0809324
0.0810152
0.0818299
0.0833616
0.0857606
0.0893684
0.0947817
0.102963
0.115404
0.134354
0.16309
0.206147
0.269234
0.358352
0.47766
0.528038
0.224955
0.147183
0.11469
0.0984717
0.0898337
0.0852066
0.082865
0.0819014
0.0818357
0.0824452
0.0836897
0.0856897
0.0887449
0.0933943
0.100522
0.111522
0.128527
0.154719
0.194638
0.254286
0.340507
0.459029
0.576401
0.239649
0.153152
0.11762
0.100268
0.0912229
0.0864616
0.0840666
0.0830442
0.0828737
0.0833096
0.0842904
0.0859066
0.0884123
0.0922774
0.0982869
0.107697
0.122464
0.145565
0.18138
0.235988
0.316882
0.431403
0.630517
0.254306
0.158403
0.119949
0.1017
0.0924497
0.087699
0.0853478
0.0843307
0.0840998
0.0843961
0.0851425
0.0864017
0.0883796
0.0914687
0.0963373
0.104072
0.116392
0.135965
0.166827
0.214839
0.287794
0.394434
0.691714
0.268463
0.162616
0.121501
0.102689
0.0934809
0.0889022
0.0866938
0.085743
0.0854932
0.0856843
0.0862309
0.0871711
0.0886629
0.091018
0.0947767
0.100833
0.110622
0.126411
0.151714
0.191842
0.254368
0.348871
0.76258
0.281717
0.165402
0.122106
0.103179
0.094312
0.0900781
0.088107
0.0872751
0.0870417
0.0871598
0.0875437
0.0882122
0.0892787
0.0909754
0.093713
0.0981822
0.105511
0.117503
0.137012
0.168493
0.21868
0.297035
0.847391
0.293981
0.166145
0.121562
0.103146
0.0949712
0.0912593
0.0896075
0.088934
0.0887427
0.0888153
0.0890737
0.0895232
0.0902389
0.0913811
0.0932389
0.0963061
0.101402
0.109855
0.123796
0.146615
0.183663
0.243061
0.952145
0.302644
0.163805
0.119584
0.102598
0.0955288
0.0925093
0.0912382
0.0907444
0.0906091
0.0906563
0.0908227
0.0911062
0.0915515
0.0922592
0.0934137
0.095335
0.0985625
0.103982
0.113028
0.128002
0.152604
0.192717
1.09078
0.303429
0.156844
0.115916
0.101617
0.0961193
0.0939347
0.0930731
0.0927585
0.0926798
0.0927132
0.0928145
0.0929791
0.0932301
0.0936227
0.0942601
0.0953243
0.0971257
0.100182
0.105335
0.113941
0.12817
0.151494
1.30339
0.28522
0.142951
0.110449
0.100446
0.0969636
0.0956887
0.0952205
0.0950619
0.0950285
0.0950513
0.0951059
0.0951882
0.095308
0.0954898
0.0957805
0.0962641
0.0970854
0.0984888
0.100875
0.104889
0.111544
0.122404
1.72752
0.215968
0.119561
0.103658
0.0996183
0.0983823
0.0979689
0.0978275
0.0977838
0.0977778
0.097788
0.0978069
0.097833
0.0978684
0.0979195
0.0979987
0.0981287
0.0983489
0.0987266
0.0993735
0.100469
0.10229
0.10523
2.23372
1.78843
1.40979
1.36794
1.11345
1.21992
1.25123
1.27918
0.785859
0.882886
0.952303
1.0032
0.645046
0.708211
0.763404
0.807949
0.582128
0.621428
0.65907
0.69302
0.57228
0.600169
0.626187
0.649363
0.570513
0.598468
0.625682
0.649591
0.611843
0.633325
0.652377
0.666827
0.637445
0.654982
0.671966
0.688338
0.658278
0.676573
0.694164
0.710719
0.665047
0.683861
0.701991
0.719291
0.662273
0.682192
0.701441
0.719988
0.649895
0.671434
0.692468
0.713049
0.628671
0.652109
0.675348
0.698497
0.601579
0.626959
0.652523
0.678417
0.572708
0.599971
0.62781
0.656387
0.545793
0.574895
0.604921
0.636035
0.523474
0.554447
0.586623
0.620159
0.507216
0.540188
0.57457
0.610506
0.49753
0.532717
0.569464
0.607899
0.49425
0.531933
0.571288
0.612428
0.496757
0.537249
0.579517
0.623658
0.504144
0.54777
0.593289
0.640786
0.515335
0.562411
0.611533
0.662774
0.529163
0.579978
0.633048
0.688431
0.544398
0.599204
0.656539
0.716455
0.559763
0.618753
0.680631
0.745447
0.573916
0.637211
0.703855
0.773906
0.585433
0.653057
0.724613
0.800183
0.592765
0.664605
0.741107
0.822392
0.594197
0.669941
0.751243
0.838286
0.58785
0.666893
0.752571
0.845144
0.571761
0.653085
0.742291
0.839727
0.544093
0.626125
0.717406
0.818386
0.503508
0.583984
0.675099
0.777426
0.449776
0.525673
0.61342
0.713923
0.384427
0.451644
0.531319
0.624797
0.31197
0.366331
0.43249
0.512192
0.240537
0.279155
0.327288
0.386801
0.179522
0.202373
0.231289
0.267749
0.135269
0.145669
0.158789
0.175341
0.108587
0.111221
0.114473
0.118488
1.23914
1.08261
1.18261
1.47916
1.4417
1.04715
0.831368
0.78226
0.774641
0.763924
0.714792
0.67636
0.705319
1.09854
2.80966
2.23125
2.27097
3.02887
4.7131
1.19565
1.05789
1.0244
0.948128
0.842481
0.74876
0.693043
0.660238
0.636168
0.613655
0.592798
0.579189
0.577216
0.597323
0.627693
0.727549
2.09615
3.057
5.28329
1.04112
1.00013
0.963341
0.896497
0.812419
0.737246
0.684406
0.648498
0.621866
0.599869
0.582195
0.568629
0.559097
0.555968
0.558085
0.57649
0.640041
2.35468
4.86826
0.862947
0.875893
0.863858
0.826276
0.775739
0.724074
0.679492
0.644955
0.618163
0.596727
0.581012
0.571034
0.564983
0.559622
0.554427
0.557385
0.6001
0.913012
4.02381
0.742133
0.768085
0.772363
0.758931
0.733405
0.701048
0.667934
0.638767
0.614578
0.595069
0.580768
0.57282
0.572151
0.57507
0.574254
0.57111
0.598014
0.892215
3.86322
0.685534
0.711284
0.721424
0.716966
0.70181
0.679766
0.655148
0.631481
0.610337
0.593551
0.583318
0.581294
0.588775
0.600335
0.60749
0.607309
0.631886
0.875801
3.83688
0.683301
0.707351
0.718073
0.713983
0.699574
0.679122
0.656501
0.634627
0.614054
0.597805
0.590871
0.598781
0.626099
0.648454
0.654931
0.66084
0.708242
0.970244
3.84819
0.690397
0.713176
0.725736
0.722736
0.710464
0.694345
0.682347
0.684242
0.686405
0.670997
0.641115
0.637142
0.674582
0.71769
0.709723
0.719193
0.837339
1.23272
4.17219
0.714914
0.738783
0.754335
0.762815
0.768314
0.777602
0.795049
0.820002
0.848047
0.875025
0.91417
1.16083
1.26661
0.78672
0.779002
0.778998
1.04589
1.77926
4.97539
0.736176
0.758391
0.775204
0.789589
0.803901
0.821295
0.845794
0.882867
0.938933
1.01575
1.09188
1.1821
1.06436
0.906386
0.828208
0.8532
1.34734
2.70157
6.08289
0.746673
0.772495
0.793084
0.811748
0.831409
0.855241
0.887883
0.937025
1.01305
1.11954
1.21732
1.20223
1.12688
1.27972
0.956441
0.965303
1.71808
3.93297
7.36281
0.749959
0.780449
0.80614
0.829523
0.853346
0.880922
0.917149
0.969504
1.04679
1.14932
1.23784
1.20544
1.1823
1.35798
1.10259
1.10482
2.0983
5.11067
8.63346
0.746991
0.783557
0.815408
0.844085
0.871863
0.901919
0.938872
0.988895
1.05754
1.14099
1.20554
1.17847
1.18165
1.47235
1.28012
1.278
2.39356
6.07595
9.77905
0.737411
0.781237
0.82049
0.855693
0.888548
0.92189
0.959818
1.00709
1.06647
1.13139
1.17403
1.15148
1.17404
1.5766
1.54437
1.54142
2.57121
6.69779
10.63
0.722643
0.77415
0.821412
0.864151
0.903515
0.941928
0.982929
1.03016
1.08458
1.13863
1.16962
1.15422
1.20217
1.67937
1.74161
2.26269
2.61206
6.97869
10.8123
0.705774
0.764701
0.819785
0.870366
0.917193
0.962384
1.00902
1.06001
1.1155
1.16847
1.20146
1.20453
1.28204
1.77318
1.41262
1.79972
2.37662
6.90111
10.3137
0.690225
0.755966
0.818293
0.876448
0.93109
0.984249
1.03869
1.09684
1.15883
1.21932
1.26605
1.29576
1.36359
1.6638
1.09579
1.05706
1.91326
6.62735
10.3275
0.678818
0.750773
0.819743
0.885118
0.9476
1.00938
1.07279
1.13969
1.21037
1.2816
1.34456
1.3888
1.36498
1.53379
0.900905
0.915614
1.72866
6.10604
10.7568
0.673471
0.7513
0.826578
0.899026
0.969544
1.04022
1.11243
1.18643
1.26195
1.33799
1.40646
1.41876
1.33435
1.09648
0.779931
0.999875
1.96623
6.3772
11.1885
0.67523
0.758978
0.840661
0.920521
0.99978
1.07953
1.15911
1.23488
1.30452
1.37209
1.4394
1.44832
1.38198
1.09126
0.927971
1.39712
2.98827
9.32086
12.8515
0.684412
0.774525
0.863173
0.951295
1.04057
1.13029
1.21586
1.28629
1.33561
1.38258
1.47497
1.63789
1.7144
1.50818
1.40336
3.33126
7.29325
17.9505
16.2915
0.700766
0.798049
0.894632
0.992336
1.09345
1.19555
1.28789
1.34821
1.36513
1.38927
1.57741
2.08604
2.53496
2.51909
3.28708
8.06172
29.6374
55.1422
23.2363
0.723632
0.829172
0.934963
1.04385
1.15916
1.27736
1.38106
1.43282
1.41204
1.41296
1.75396
2.80206
4.06567
5.34646
10.1378
21.3667
72.1349
94.0399
29.1601
0.752062
0.867153
0.983587
1.10525
1.23686
1.37514
1.49796
1.55054
1.49178
1.41683
1.67942
2.38707
2.79129
4.68278
11.5501
31.8813
80.7395
89.9955
31.0922
0.784915
0.910991
1.03955
1.1752
1.32394
1.4836
1.6298
1.6938
1.5881
1.35208
1.28451
0.962885
1.0078
2.23971
6.96696
41.3775
93.3707
79.6443
36.6911
0.820906
0.959517
1.10171
1.25205
1.41679
1.59404
1.75956
1.8375
1.67733
1.30861
0.908243
0.588685
0.654678
1.04162
3.34456
54.3399
95.8803
71.2635
38.4085
0.858639
1.01147
1.1689
1.33439
1.51255
1.69916
1.87055
1.95392
1.7495
1.26322
0.603203
0.496123
0.547822
0.777883
1.94408
37.6725
99.4801
67.3444
40.3787
0.8966
1.06555
1.24016
1.42167
1.6108
1.79729
1.95508
2.03729
1.8409
1.26963
0.55484
0.464938
0.507386
0.714818
1.39692
20.3762
94.8488
66.744
42.2325
0.933111
1.12031
1.31474
1.51449
1.71474
1.89587
2.02291
2.08427
1.94084
1.39816
0.620466
0.45939
0.495643
0.695655
1.3335
13.7033
83.5637
65.5731
46.5421
0.966194
1.17403
1.39167
1.61396
1.83046
2.01135
2.10088
2.09513
1.97263
1.55637
0.797512
0.476346
0.502316
0.695855
1.32639
9.47003
76.361
64.2548
51.5027
0.993382
1.22422
1.46903
1.7199
1.9623
2.15825
2.22804
2.14038
1.97278
1.63649
0.976184
0.50691
0.517703
0.701644
1.32128
7.93214
71.6133
62.9875
57.1012
1.01151
1.26729
1.54321
1.82956
2.11031
2.34458
2.44074
2.30897
2.0661
1.71133
1.08536
0.545491
0.537435
0.715839
1.33254
6.30056
68.5129
62.0939
62.2147
1.01656
1.29811
1.60819
1.93639
2.26779
2.565
2.74105
2.65698
2.33492
1.91307
1.19322
0.576222
0.567797
0.756369
1.40135
4.55192
65.1063
61.4322
67.8095
1.00368
1.30974
1.65498
2.02936
2.42088
2.80066
3.09643
3.16882
2.8852
2.35955
1.59922
0.695934
0.637278
0.859638
1.64845
4.24429
52.9746
60.2094
72.7139
0.967503
1.29344
1.67132
2.09242
2.54824
3.0213
3.46177
3.75186
3.7182
3.23452
2.42931
0.998752
0.781466
1.0638
2.00856
5.21877
44.212
59.1839
76.3925
0.902917
1.23931
1.64183
2.10435
2.62091
3.18541
3.77645
4.31934
4.64229
4.4784
3.66446
2.42446
1.12237
1.40498
2.65253
7.44364
47.3019
59.1578
76.8339
0.803731
1.13684
1.55176
2.04224
2.60301
3.24283
3.96251
4.75197
5.51238
5.9795
5.56078
4.35685
2.64369
1.88777
3.80262
15.398
48.1355
57.8907
76.4885
0.668643
0.976003
1.37926
1.8769
2.46344
3.14059
3.93325
4.89397
6.0352
7.22899
7.86582
7.03192
5.64294
5.33596
11.6976
36.4252
61.817
56.0331
76.2976
0.507262
0.75919
1.11223
1.57469
2.14624
2.82611
3.63071
4.61964
5.93973
7.64693
9.44814
9.97584
9.06154
10.3509
22.2575
52.1197
69.6104
54.7609
75.2995
0.343602
0.512496
0.767996
1.12993
1.61034
2.21586
2.96086
3.89412
5.1387
6.9362
9.4782
11.98
12.7879
15.4258
29.321
60.3803
70.4047
53.4805
71.9839
0.210037
0.289753
0.417576
0.614008
0.899877
1.29509
1.82557
2.5452
3.57997
5.1928
7.81989
11.9542
16.6082
21.8137
37.0381
63.994
66.1992
51.6168
66.0491
0.126702
0.14446
0.171089
0.210146
0.266416
0.347361
0.467288
0.659287
1.01378
1.79528
3.72029
8.51008
18.9998
30.6708
45.1603
61.6574
59.4007
50.06
56.7883
)
;

boundaryField
{
    leftWall
    {
        lowReCorrection 0;
        blending        stepwise;
        n               2;
        type            epsilonWallFunction;
        value           nonuniform List<scalar> 
50
(
0.0355034
0.0439354
0.0535351
0.0595562
0.0678039
0.0754319
0.0809419
0.0838338
0.0835778
0.0782899
0.0753197
0.13999
0.436681
0.520331
0.47396
0.439852
0.431854
0.431407
0.432654
0.432341
0.42872
0.421385
0.410745
0.397642
0.383097
0.368157
0.353806
0.340928
0.330289
0.322542
0.318235
0.317821
0.321672
0.330087
0.343302
0.361488
0.384746
0.413094
0.446475
0.484797
0.528038
0.576401
0.630517
0.691714
0.76258
0.847391
0.952145
1.09078
1.30339
1.72752
)
;
    }
    rightWall
    {
        lowReCorrection 0;
        blending        stepwise;
        n               2;
        type            epsilonWallFunction;
        value           nonuniform List<scalar> 
50
(
0.069728
0.144055
0.355239
0.741158
1.35137
2.17852
3.12436
4.01813
4.7131
5.28329
4.86826
4.02381
3.86322
3.83688
3.84819
4.17219
4.97539
6.08289
7.36281
8.63346
9.77905
10.63
10.8123
10.3137
10.3275
10.7568
11.1885
12.8515
16.2915
23.2363
29.1601
31.0922
36.6911
38.4085
40.3787
42.2325
46.5421
51.5027
57.1012
62.2147
67.8095
72.7139
76.3925
76.8339
76.4885
76.2976
75.2995
71.9839
66.0491
56.7883
)
;
    }
    lowerWall
    {
        lowReCorrection 0;
        blending        stepwise;
        n               2;
        type            epsilonWallFunction;
        value           nonuniform List<scalar> 
62
(
0.0355034
0.111698
0.213985
0.308153
0.392527
0.462804
0.525132
0.582005
0.634714
0.683471
0.727623
0.765849
0.796263
0.816282
0.821857
0.814886
0.792864
0.749127
0.682603
0.596726
0.496354
0.396929
0.300075
0.300075
0.347943
0.550705
0.76858
0.997207
1.20287
1.42146
1.72808
2.23372
1.78843
1.40979
1.36794
0.118824
0.241005
0.412596
0.545194
0.631897
0.684647
0.744664
1.20606
0.118824
0.496323
0.951687
1.44209
1.92242
2.33506
2.6479
2.86188
3.00338
3.11453
3.22875
3.32046
3.27339
2.95728
2.36612
1.66414
1.03396
0.526958
0.069728
)
;
    }
    atmosphere
    {
        type            inletOutlet;
        inletValue      uniform 0.1;
        value           nonuniform List<scalar> 
46
(
0.1
0.1
0.1
0.1
0.1
0.1
0.1
0.1
0.1
0.1
0.1
0.1
0.1
0.1
0.1
0.1
0.1
0.1
0.1
0.1
0.1
0.1
0.1
0.1
0.1
0.1
0.1
0.1
0.1
0.1
0.1
0.1
0.1
0.1
0.1
0.1
0.1
0.1
0.1
0.1
30.6708
45.1603
61.6574
59.4007
50.06
56.7883
)
;
    }
    defaultFaces
    {
        type            empty;
    }
}


// ************************************************************************* //
