/*--------------------------------*- C++ -*----------------------------------*\
| =========                 |                                                 |
| \\      /  F ield         | OpenFOAM: The Open Source CFD Toolbox           |
|  \\    /   O peration     | Version:  v2012                                 |
|   \\  /    A nd           | Website:  www.openfoam.com                      |
|    \\/     M anipulation  |                                                 |
\*---------------------------------------------------------------------------*/
FoamFile
{
    version     2.0;
    format      ascii;
    class       volScalarField;
    location    "0.45";
    object      k;
}
// * * * * * * * * * * * * * * * * * * * * * * * * * * * * * * * * * * * * * //

dimensions      [0 2 -2 0 0 0 0];


internalField   nonuniform List<scalar> 
2268
(
0.0050593
0.00885091
0.0136428
0.0173912
0.0204279
0.022791
0.0247863
0.0265373
0.0281085
0.0295226
0.0307734
0.031835
0.032666
0.0332053
0.0333501
0.0331597
0.0325562
0.0313422
0.0294505
0.0269147
0.023794
0.0204999
0.0170626
0.00783789
0.0181407
0.0275923
0.0353073
0.0410502
0.0456261
0.0494536
0.0527899
0.0557723
0.058454
0.0608372
0.0628958
0.0645908
0.0658773
0.0666932
0.066862
0.0663278
0.0650729
0.0632669
0.061167
0.0583866
0.0510146
0.030996
0.0089412
0.0225984
0.0335249
0.0423342
0.0493399
0.0550649
0.0599192
0.0641777
0.0679912
0.0714217
0.0744792
0.0771482
0.0794073
0.0812397
0.0826319
0.0835205
0.0838587
0.0835821
0.0826603
0.0810683
0.0781156
0.0702608
0.0420159
0.00959021
0.0254167
0.0367435
0.0461033
0.0538247
0.0603105
0.0659135
0.0708774
0.075337
0.0793503
0.0829326
0.086082
0.088799
0.0910984
0.0930125
0.0945587
0.0957468
0.0965079
0.0966409
0.0957456
0.0927793
0.0847295
0.0524218
0.0104486
0.0271655
0.0386388
0.0481918
0.0563304
0.0633813
0.0696093
0.0751936
0.080232
0.0847691
0.0888232
0.0924073
0.0955447
0.0982815
0.10069
0.102841
0.104795
0.106493
0.107642
0.107597
0.105031
0.0973022
0.0623394
0.0112128
0.02832
0.0396356
0.0491524
0.0575401
0.0650518
0.071841
0.0780014
0.0835829
0.0886127
0.0931117
0.0971081
0.100648
0.103806
0.106687
0.109403
0.112049
0.114581
0.116676
0.117576
0.115776
0.108637
0.0706208
0.0117473
0.0288631
0.0398405
0.0492303
0.0578161
0.0657556
0.0730762
0.0797813
0.0858741
0.091367
0.0962857
0.100674
0.104599
0.108162
0.111494
0.114737
0.118012
0.12129
0.124258
0.126144
0.125396
0.119193
0.0788928
0.0120184
0.0286951
0.0392657
0.0485745
0.0574141
0.0658023
0.0736399
0.0808556
0.0874197
0.0933377
0.0986437
0.103397
0.107687
0.111634
0.11539
0.119121
0.122971
0.126922
0.130691
0.133556
0.134062
0.129355
0.0898189
0.00938519
0.0245661
0.0378996
0.0499563
0.0604952
0.0688884
0.0749915
0.0791552
0.0820547
0.0845181
0.0870936
0.0893944
0.089309
0.0844899
0.0740029
0.0596423
0.0443618
0.0285091
0.00860881
0.0271681
0.0688999
0.0887091
0.0978247
0.103749
0.109931
0.11725
0.124408
0.130523
0.137255
0.146964
0.159731
0.171693
0.176274
0.168008
0.148013
0.121579
0.0849042
0.020355
0.0389919
0.0977157
0.123194
0.13775
0.149963
0.162579
0.175455
0.185313
0.189934
0.192734
0.199625
0.213366
0.229189
0.238381
0.232057
0.209737
0.178325
0.130787
0.0374994
0.0469401
0.118026
0.153004
0.177819
0.200524
0.224736
0.249258
0.266533
0.270657
0.266318
0.263376
0.269162
0.280158
0.288002
0.281713
0.258197
0.225649
0.173317
0.0608617
0.0517025
0.131
0.176898
0.215778
0.255565
0.300979
0.347285
0.379366
0.386779
0.37587
0.359043
0.345782
0.338536
0.333542
0.32073
0.294066
0.263145
0.211921
0.0894257
0.0543515
0.13936
0.195664
0.250895
0.312285
0.385424
0.459665
0.511808
0.528739
0.518413
0.492499
0.455683
0.417045
0.384666
0.354231
0.318227
0.28899
0.243932
0.120366
0.0570523
0.145676
0.211227
0.279895
0.358168
0.452097
0.547291
0.619664
0.653512
0.652925
0.629352
0.578496
0.507305
0.443032
0.389163
0.334598
0.302592
0.265305
0.149541
0.0738537
0.147581
0.214919
0.286416
0.362483
0.447035
0.533339
0.620078
0.676593
0.686998
0.670868
0.622911
0.534965
0.462234
0.419992
0.345836
0.306296
0.273487
0.172868
0.0119816
0.0275012
0.037582
0.0469706
0.0562816
0.0653203
0.0738509
0.0817348
0.0889177
0.0954051
0.101245
0.106521
0.111349
0.11588
0.120292
0.124762
0.129441
0.134343
0.139259
0.143595
0.146135
0.144377
0.121777
0.0114606
0.0237312
0.0337007
0.044037
0.0543774
0.0642877
0.0735286
0.0820086
0.0897172
0.0966933
0.103013
0.108788
0.114162
0.119312
0.124423
0.129665
0.135173
0.140979
0.146968
0.152624
0.156858
0.157772
0.148934
0.0111803
0.0191597
0.0305633
0.0426838
0.0538767
0.0642177
0.0737232
0.0824041
0.0902982
0.0974718
0.10402
0.11007
0.115786
0.12137
0.126964
0.13275
0.138858
0.145432
0.152421
0.159259
0.165058
0.168859
0.168522
0.0173182
0.0236571
0.033775
0.0447903
0.0552424
0.0651374
0.0743673
0.082869
0.0906405
0.097726
0.104207
0.110203
0.116
0.12226
0.128455
0.134791
0.141669
0.149101
0.156605
0.163875
0.170745
0.177029
0.181771
0.0365199
0.060041
0.0750299
0.085567
0.092604
0.0988028
0.104924
0.110977
0.116846
0.122394
0.127405
0.13144
0.133389
0.129046
0.130205
0.135468
0.142116
0.150378
0.15888
0.166845
0.174636
0.182483
0.189374
0.0406209
0.0723327
0.0920647
0.102536
0.109808
0.116293
0.122548
0.128693
0.134755
0.140724
0.146536
0.152037
0.156965
0.161104
0.166238
0.17154
0.174462
0.168455
0.161688
0.167497
0.175468
0.185062
0.192382
0.0381259
0.0738259
0.0957663
0.109087
0.118804
0.126942
0.134321
0.141319
0.148161
0.15501
0.161982
0.169145
0.17651
0.184078
0.191924
0.199345
0.204962
0.207459
0.209318
0.213462
0.214669
0.196128
0.194184
0.0362943
0.0723639
0.0947191
0.110072
0.121855
0.131697
0.140443
0.148582
0.156449
0.164309
0.172384
0.180849
0.189804
0.199252
0.209042
0.218698
0.227479
0.234596
0.240388
0.245465
0.248886
0.248298
0.250006
0.0358374
0.070539
0.0926008
0.108757
0.121666
0.132647
0.142452
0.151568
0.160355
0.169111
0.178094
0.187518
0.197522
0.208131
0.219212
0.230428
0.241271
0.251171
0.259791
0.267296
0.273807
0.27884
0.283097
0.0357995
0.0690517
0.0904766
0.106597
0.119819
0.131289
0.141667
0.151396
0.160819
0.170226
0.179875
0.189981
0.200694
0.21206
0.223985
0.23621
0.248331
0.259867
0.270428
0.279932
0.288573
0.296372
0.303181
0.0358524
0.067902
0.0884685
0.104075
0.117067
0.128515
0.139013
0.148964
0.158681
0.168432
0.178459
0.188966
0.200097
0.21191
0.224342
0.237187
0.25011
0.262698
0.274577
0.285582
0.295774
0.305178
0.313549
0.0358191
0.0668096
0.0864321
0.101298
0.113759
0.124852
0.135134
0.144975
0.154665
0.164451
0.174555
0.185164
0.196416
0.208372
0.220993
0.234117
0.247472
0.260713
0.273504
0.285633
0.297028
0.307628
0.317182
0.0356046
0.0655749
0.0842444
0.0982964
0.110092
0.120646
0.130494
0.139987
0.149395
0.158951
0.168858
0.179291
0.190379
0.202186
0.21469
0.227772
0.24122
0.254754
0.268089
0.280997
0.293323
0.304918
0.315489
0.0351856
0.0641119
0.0818627
0.0951146
0.106212
0.116148
0.125445
0.134441
0.143395
0.152525
0.162025
0.172057
0.182746
0.194158
0.20629
0.21906
0.23231
0.245824
0.259368
0.272729
0.285713
0.298115
0.309602
0.034582
0.0624181
0.0793088
0.0918167
0.10224
0.111548
0.120251
0.128677
0.137077
0.145662
0.154616
0.164097
0.174225
0.185073
0.196656
0.208925
0.22177
0.235036
0.248542
0.262101
0.275519
0.288563
0.300876
0.0338368
0.0605418
0.0766424
0.0884791
0.0982818
0.106992
0.115105
0.122943
0.130751
0.138735
0.147074
0.155924
0.165405
0.175599
0.186539
0.198208
0.210541
0.223436
0.236765
0.250379
0.264101
0.27769
0.290776
0.0330037
0.0585588
0.0739419
0.0851823
0.0944274
0.102587
0.110144
0.117412
0.124632
0.132007
0.139716
0.147912
0.156723
0.16624
0.176516
0.187565
0.199363
0.21186
0.224977
0.238613
0.252611
0.266739
0.28061
0.0321399
0.0565571
0.0712932
0.0820063
0.0907559
0.0984194
0.105466
0.112202
0.118864
0.125655
0.132752
0.140315
0.148476
0.15734
0.166982
0.177446
0.18875
0.200891
0.213843
0.22755
0.241886
0.256626
0.271359
0.0313019
0.0546268
0.0687823
0.0790285
0.0873381
0.0945576
0.101142
0.107392
0.113541
0.119788
0.126315
0.133286
0.140844
0.149108
0.158176
0.168124
0.179011
0.190882
0.203765
0.217648
0.232443
0.247927
0.263654
0.030543
0.0528539
0.0664917
0.076322
0.0842381
0.0910589
0.0972272
0.103037
0.108718
0.114471
0.120479
0.126912
0.133924
0.141653
0.150221
0.159736
0.1703
0.182007
0.194938
0.209134
0.224538
0.240931
0.257819
0.0299117
0.0513168
0.0644971
0.0739535
0.0815126
0.0879711
0.0937614
0.0991721
0.10443
0.109736
0.115276
0.121226
0.127754
0.135016
0.143159
0.152325
0.16266
0.17431
0.187412
0.202058
0.218229
0.235706
0.253932
0.0294513
0.0500837
0.0628644
0.0719809
0.07921
0.0853325
0.0907741
0.095819
0.100692
0.105593
0.110711
0.11623
0.122329
0.129185
0.13697
0.145864
0.156055
0.167744
0.181125
0.196348
0.213433
0.232155
0.251889
0.0291988
0.0492104
0.0616478
0.070451
0.0773674
0.0831707
0.0882829
0.092986
0.097503
0.102033
0.106767
0.111897
0.117615
0.124115
0.131599
0.14028
0.150394
0.162197
0.175944
0.191844
0.20996
0.230061
0.25145
0.0291841
0.048739
0.0608873
0.0693969
0.0760096
0.0815008
0.0862938
0.0906698
0.0948502
0.0990337
0.103414
0.108187
0.113557
0.119738
0.126959
0.135469
0.145551
0.157514
0.171682
0.188324
0.207548
0.229125
0.252279
0.0294293
0.0486961
0.0606066
0.0688361
0.0751463
0.0803251
0.0848006
0.0888556
0.0927104
0.0965624
0.100606
0.105043
0.110088
0.115972
0.12295
0.131309
0.141375
0.153516
0.16812
0.185526
0.205891
0.228991
0.253986
0.0299487
0.0490929
0.0608129
0.0687695
0.0747723
0.0796317
0.0837855
0.0875188
0.0910514
0.0945791
0.0982958
0.102406
0.107134
0.112728
0.119466
0.12767
0.13771
0.150011
0.165027
0.18317
0.204655
0.229278
0.256145
0.0307483
0.0499261
0.0614965
0.0691812
0.0748667
0.0793958
0.0832192
0.086626
0.0898351
0.0930395
0.0964313
0.100217
0.104626
0.109921
0.116403
0.124425
0.1344
0.146807
0.162167
0.180969
0.203499
0.229587
0.258312
0.0318269
0.0511807
0.0626325
0.0700395
0.0753941
0.0795799
0.0830633
0.0861372
0.089019
0.091898
0.0949623
0.0984171
0.102496
0.107473
0.113667
0.12146
0.131303
0.143725
0.159316
0.178644
0.20208
0.229515
0.260031
0.0331756
0.0528327
0.0641826
0.0712988
0.0763061
0.080136
0.0832709
0.0860069
0.0885586
0.0911097
0.0938425
0.0969579
0.10069
0.105319
0.11118
0.118677
0.128294
0.140607
0.156268
0.175932
0.200069
0.228661
0.260832
0.0347791
0.0548518
0.0660975
0.0729015
0.0775446
0.0810082
0.0837897
0.0861866
0.0884087
0.090632
0.0930305
0.0957977
0.099164
0.103411
0.108883
0.116
0.125274
0.137319
0.152846
0.172595
0.197151
0.226623
0.260231
0.036617
0.0572023
0.0683198
0.0747827
0.0790446
0.0821357
0.0845645
0.0866267
0.088525
0.0904255
0.092491
0.0949041
0.0978866
0.101715
0.106737
0.113381
0.122177
0.133768
0.148914
0.168435
0.193045
0.223015
0.257727
0.0386679
0.059844
0.0707871
0.0768736
0.0807395
0.0834571
0.0855401
0.0872788
0.0888656
0.0904546
0.0921944
0.0942532
0.096839
0.100218
0.104729
0.110803
0.118976
0.129905
0.144385
0.163308
0.187519
0.217486
0.252823
0.0409153
0.0627358
0.0734371
0.0791074
0.0825651
0.0849137
0.0866645
0.0880973
0.0893919
0.0906872
0.0921159
0.0938281
0.0960128
0.0989178
0.102867
0.10828
0.115683
0.125735
0.139244
0.157152
0.180425
0.209755
0.245061
0.0433555
0.0658416
0.0762132
0.0814237
0.084464
0.0864532
0.0878909
0.0890416
0.090069
0.0910954
0.092235
0.0936173
0.0954081
0.0978297
0.101181
0.105855
0.112358
0.121327
0.133557
0.150009
0.171744
0.199674
0.234089
0.0460056
0.0691404
0.0790688
0.0837724
0.0863883
0.0880318
0.0891801
0.090077
0.0908671
0.0916547
0.0925342
0.0936128
0.0950297
0.0969759
0.0997149
0.103602
0.109104
0.116815
0.127487
0.142059
0.16163
0.187303
0.219762
0.0489136
0.0726376
0.0819693
0.0861147
0.0883006
0.0896152
0.0905012
0.0911757
0.0917618
0.0923446
0.0929986
0.093808
0.0948837
0.0963816
0.0985223
0.101611
0.106058
0.112394
0.121297
0.13363
0.150463
0.173
0.202286
0.0521801
0.076354
0.0848921
0.0884211
0.0901734
0.0911796
0.091833
0.0923182
0.092735
0.0931487
0.093615
0.0941958
0.0949741
0.0960695
0.0976556
0.0999793
0.10338
0.108304
0.115328
0.125195
0.138858
0.157496
0.182372
0.0559655
0.0803087
0.0878267
0.0906701
0.0919894
0.0927118
0.0931646
0.0934944
0.093776
0.0940561
0.0943727
0.0947683
0.0953004
0.096054
0.0971558
0.0987908
0.101219
0.10479
0.10996
0.117317
0.127627
0.141894
0.161354
0.0604863
0.0846513
0.0907657
0.0928503
0.093744
0.0942127
0.0944992
0.0947066
0.0948851
0.095064
0.0952668
0.0955196
0.0958589
0.0963397
0.0970461
0.0981037
0.0996934
0.102064
0.105544
0.110555
0.117643
0.127534
0.141189
0.0662588
0.0895254
0.0936806
0.0949525
0.0954488
0.0957029
0.0958592
0.0959756
0.0960788
0.0961841
0.0963038
0.0964518
0.0966484
0.0969251
0.0973308
0.0979406
0.0988648
0.100258
0.102328
0.105342
0.109636
0.115646
0.123942
0.0747498
0.0948897
0.0964965
0.0969673
0.0971328
0.097225
0.0972889
0.0973419
0.0973923
0.0974454
0.0975059
0.0975796
0.0976759
0.0978091
0.0980027
0.098293
0.0987345
0.0994051
0.100411
0.101889
0.104009
0.106976
0.111028
0.0906656
0.0994326
0.0989787
0.0988598
0.0988373
0.098842
0.0988538
0.0988676
0.0988825
0.0988989
0.0989177
0.0989401
0.0989686
0.0990069
0.0990616
0.0991427
0.0992658
0.0994533
0.0997366
0.100157
0.100764
0.101615
0.102759
0.10663
0.0916889
0.0781754
0.0768357
0.139966
0.133518
0.130225
0.131749
0.16579
0.163081
0.160897
0.160169
0.183484
0.184108
0.184135
0.183757
0.192591
0.19448
0.195831
0.196561
0.195465
0.197405
0.198936
0.199957
0.196201
0.197921
0.199451
0.200831
0.251181
0.250994
0.248082
0.239139
0.285505
0.286775
0.287326
0.286948
0.307304
0.309918
0.312061
0.313622
0.318674
0.321978
0.324844
0.327223
0.323098
0.326923
0.330295
0.333193
0.32213
0.32645
0.33033
0.333769
0.316974
0.321817
0.326261
0.330319
0.308976
0.314362
0.319409
0.324137
0.299602
0.305536
0.311199
0.316609
0.290174
0.296664
0.302943
0.309028
0.281706
0.288771
0.295675
0.302428
0.274861
0.282541
0.290093
0.297522
0.269989
0.27834
0.286583
0.294719
0.267185
0.276275
0.285267
0.294158
0.266346
0.276246
0.286053
0.295762
0.267225
0.278002
0.288692
0.299289
0.269473
0.281186
0.292826
0.304382
0.27268
0.285381
0.298029
0.310612
0.2764
0.290127
0.303833
0.317504
0.280167
0.294944
0.309745
0.324556
0.283493
0.299328
0.315251
0.331245
0.285871
0.302753
0.319805
0.337011
0.286764
0.30465
0.322816
0.341246
0.285597
0.304403
0.323629
0.343261
0.281763
0.301341
0.321516
0.342273
0.274656
0.294769
0.315695
0.337414
0.26373
0.284023
0.305379
0.327771
0.248611
0.268577
0.28988
0.312487
0.229252
0.248209
0.268778
0.290952
0.20613
0.223146
0.241995
0.262717
0.180571
0.194634
0.210571
0.228494
0.154971
0.165263
0.177177
0.190894
0.132325
0.138626
0.146019
0.154688
0.115019
0.117976
0.121424
0.125465
0.103825
0.104581
0.105434
0.10641
0.117801
0.141753
0.163879
0.195919
0.190889
0.161796
0.149125
0.148605
0.151527
0.154596
0.154588
0.155174
0.16164
0.199446
0.393008
0.345603
0.306942
0.272603
0.188271
0.137135
0.140578
0.151695
0.158101
0.151852
0.144025
0.140856
0.140882
0.142241
0.143835
0.144967
0.146201
0.148435
0.153377
0.160195
0.171779
0.290178
0.270351
0.197409
0.160499
0.159673
0.163052
0.162776
0.158006
0.152465
0.149102
0.147873
0.147632
0.147639
0.147749
0.148019
0.148577
0.14985
0.15192
0.15616
0.163828
0.250582
0.185129
0.182624
0.180354
0.178674
0.175853
0.171878
0.167441
0.163413
0.160181
0.157541
0.155373
0.153904
0.153248
0.153209
0.153318
0.153451
0.154678
0.160267
0.179114
0.166869
0.19651
0.194386
0.191642
0.188545
0.184881
0.180433
0.175498
0.170644
0.166227
0.162484
0.159723
0.158236
0.158168
0.158837
0.158884
0.158289
0.160346
0.176423
0.166155
0.200521
0.19917
0.196855
0.194089
0.190599
0.186194
0.181023
0.175548
0.170331
0.166048
0.163281
0.162347
0.163369
0.165262
0.166254
0.165162
0.164559
0.174252
0.164915
0.201675
0.200642
0.198618
0.195896
0.1923
0.187855
0.182722
0.177272
0.171882
0.167475
0.165121
0.165866
0.170335
0.1741
0.1748
0.173274
0.171307
0.175717
0.164609
0.222559
0.213444
0.208121
0.202802
0.198703
0.195056
0.193092
0.195228
0.19583
0.188529
0.176945
0.172881
0.178065
0.184826
0.182699
0.178772
0.178114
0.185453
0.171716
0.285206
0.282564
0.279119
0.274704
0.270479
0.267524
0.26651
0.266871
0.266194
0.261976
0.256079
0.277974
0.273713
0.192186
0.189037
0.178969
0.18476
0.205803
0.190992
0.315147
0.314557
0.312452
0.309519
0.306395
0.303729
0.302267
0.302729
0.305298
0.308456
0.3063
0.29921
0.257637
0.198828
0.184889
0.176069
0.194118
0.238001
0.216524
0.330315
0.331469
0.33068
0.32887
0.326825
0.325261
0.32506
0.327412
0.333345
0.341499
0.342374
0.318086
0.282706
0.267106
0.178621
0.175859
0.207004
0.277048
0.244759
0.33724
0.339769
0.340297
0.339612
0.338505
0.337783
0.338418
0.341591
0.348094
0.35613
0.356431
0.330844
0.303738
0.293753
0.178619
0.177356
0.218742
0.309623
0.271606
0.338821
0.342775
0.34466
0.345082
0.344776
0.344585
0.345489
0.348467
0.353806
0.359251
0.35694
0.33419
0.311888
0.317411
0.184821
0.179296
0.222834
0.331435
0.294654
0.33651
0.342055
0.345476
0.34716
0.347762
0.348115
0.349166
0.3517
0.355607
0.358417
0.353665
0.333457
0.31523
0.335389
0.207939
0.182494
0.21635
0.338228
0.31111
0.331559
0.33878
0.343835
0.346941
0.348645
0.34975
0.351166
0.353557
0.356627
0.357967
0.352272
0.334716
0.321206
0.350528
0.257935
0.194116
0.200867
0.329748
0.314365
0.325275
0.334159
0.340803
0.345359
0.34827
0.350318
0.352401
0.355155
0.358295
0.359717
0.355161
0.341602
0.331816
0.358018
0.234046
0.166566
0.180171
0.30919
0.304386
0.318906
0.329368
0.337498
0.343383
0.347464
0.350512
0.353449
0.356957
0.360917
0.36369
0.361885
0.352774
0.338569
0.330537
0.180242
0.142461
0.162398
0.288402
0.302422
0.313481
0.325428
0.334918
0.341983
0.347087
0.351027
0.354742
0.358979
0.363843
0.368202
0.369111
0.361858
0.330177
0.289776
0.145175
0.137514
0.158152
0.266583
0.308836
0.30974
0.323118
0.333885
0.342028
0.347979
0.352556
0.356634
0.360913
0.36567
0.370313
0.371962
0.359793
0.316983
0.203087
0.142019
0.143045
0.166704
0.272435
0.315924
0.30813
0.322955
0.334993
0.34419
0.350896
0.355793
0.359531
0.362488
0.365009
0.367608
0.36904
0.356968
0.317853
0.19675
0.149071
0.159805
0.205156
0.352719
0.346834
0.308832
0.325196
0.338595
0.348937
0.356457
0.361469
0.364148
0.364133
0.361771
0.360229
0.365014
0.374798
0.357923
0.281152
0.189475
0.232276
0.34776
0.585256
0.416336
0.311797
0.329863
0.34481
0.356522
0.365095
0.370359
0.371672
0.367461
0.357973
0.351304
0.366988
0.414761
0.434777
0.380468
0.355436
0.437058
0.840981
1.36246
0.514973
0.316805
0.336788
0.353549
0.366975
0.377046
0.383095
0.383486
0.374965
0.357134
0.343619
0.371692
0.459773
0.527058
0.537063
0.664127
0.957103
1.8743
2.14711
0.595645
0.323508
0.345658
0.364545
0.380086
0.392195
0.399812
0.40045
0.388865
0.36189
0.332287
0.339637
0.372443
0.337997
0.373394
0.621041
1.24804
2.17428
2.18441
0.634179
0.331474
0.356056
0.377388
0.395407
0.409978
0.419735
0.421542
0.408365
0.370549
0.311708
0.265074
0.185064
0.163392
0.221927
0.41624
1.48401
2.64453
2.05583
0.655954
0.340224
0.3675
0.391569
0.412324
0.429491
0.441347
0.444304
0.430108
0.380677
0.29686
0.19281
0.134321
0.1344
0.152012
0.235024
1.82801
2.79874
1.91667
0.716435
0.349246
0.379478
0.406549
0.430188
0.449792
0.463032
0.465975
0.450585
0.391787
0.285322
0.14168
0.123176
0.124332
0.133696
0.178439
1.2751
2.86521
1.86516
0.743509
0.358005
0.391462
0.421808
0.448464
0.470258
0.483877
0.484706
0.468703
0.409997
0.289392
0.1356
0.119382
0.120281
0.128592
0.154686
0.732306
2.67743
1.91127
0.778741
0.365931
0.4029
0.436856
0.466804
0.490846
0.504475
0.501353
0.482597
0.432936
0.318763
0.149606
0.118981
0.119517
0.127607
0.151902
0.523873
2.3677
1.92748
0.846589
0.372391
0.413175
0.45116
0.484923
0.511872
0.526224
0.51864
0.49083
0.446368
0.35486
0.188226
0.122299
0.12151
0.129347
0.153091
0.396953
2.17874
1.9241
0.916248
0.376648
0.421523
0.464
0.5023
0.53339
0.550574
0.541499
0.503675
0.453473
0.375885
0.229941
0.127933
0.125148
0.13275
0.156028
0.351075
2.05484
1.9111
0.976322
0.377831
0.426969
0.474344
0.517952
0.55471
0.577823
0.573905
0.531817
0.471569
0.392291
0.25442
0.13511
0.129586
0.137557
0.161266
0.30683
1.96699
1.89766
1.02467
0.37492
0.42828
0.480765
0.530265
0.574009
0.605987
0.614006
0.580209
0.510877
0.424047
0.273283
0.140586
0.134915
0.144006
0.169788
0.266178
1.86192
1.8825
1.07675
0.366782
0.423965
0.481413
0.53698
0.588394
0.631033
0.655011
0.643491
0.58207
0.484483
0.33861
0.155069
0.143277
0.154394
0.187984
0.277938
1.51878
1.84258
1.12419
0.352258
0.412336
0.474072
0.535292
0.594169
0.647688
0.688927
0.704147
0.675223
0.589431
0.451466
0.191611
0.157429
0.170806
0.211595
0.326144
1.26768
1.8064
1.16067
0.330339
0.391651
0.456273
0.522
0.587129
0.650033
0.707114
0.74936
0.759638
0.713726
0.590138
0.383583
0.18939
0.195731
0.248113
0.415076
1.3424
1.81904
1.1843
0.30006
0.36035
0.425924
0.494064
0.562886
0.632201
0.700782
0.765819
0.816779
0.830809
0.759869
0.597953
0.35576
0.23284
0.302991
0.698771
1.45219
1.80794
1.17163
0.261482
0.317221
0.38044
0.448285
0.518214
0.589134
0.66222
0.740071
0.821154
0.89287
0.911591
0.810265
0.63835
0.496753
0.64098
1.32219
1.86713
1.75839
1.16709
0.216835
0.263173
0.318784
0.381408
0.448197
0.517006
0.587949
0.664791
0.756034
0.861944
0.959889
0.969676
0.86196
0.823891
1.14707
1.84146
2.12019
1.69774
1.16666
0.171505
0.203355
0.24437
0.293879
0.349906
0.41011
0.473392
0.541962
0.623472
0.731728
0.873579
1.00246
1.02595
1.06766
1.44383
2.12144
2.16601
1.5982
1.13961
0.133356
0.148704
0.169602
0.196908
0.23062
0.269975
0.314424
0.365513
0.429761
0.522199
0.667092
0.888278
1.13286
1.30219
1.69776
2.22843
2.07417
1.50098
1.08785
0.108262
0.111573
0.115672
0.120628
0.126488
0.133369
0.14174
0.153091
0.171872
0.211372
0.307622
0.546952
1.0632
1.56025
1.90795
2.17183
1.91334
1.43508
0.998329
)
;

boundaryField
{
    leftWall
    {
        type            kqRWallFunction;
        value           nonuniform List<scalar> 
50
(
0.0050593
0.00783789
0.0089412
0.00959021
0.0104486
0.0112128
0.0117473
0.0120184
0.0119816
0.0114606
0.0111803
0.0173182
0.0365199
0.0406209
0.0381259
0.0362943
0.0358374
0.0357995
0.0358524
0.0358191
0.0356046
0.0351856
0.034582
0.0338368
0.0330037
0.0321399
0.0313019
0.030543
0.0299117
0.0294513
0.0291988
0.0291841
0.0294293
0.0299487
0.0307483
0.0318269
0.0331756
0.0347791
0.036617
0.0386679
0.0409153
0.0433555
0.0460056
0.0489136
0.0521801
0.0559655
0.0604863
0.0662588
0.0747498
0.0906656
)
;
    }
    rightWall
    {
        type            kqRWallFunction;
        value           nonuniform List<scalar> 
50
(
0.00860881
0.020355
0.0374994
0.0608617
0.0894257
0.120366
0.149541
0.172868
0.188271
0.197409
0.185129
0.166869
0.166155
0.164915
0.164609
0.171716
0.190992
0.216524
0.244759
0.271606
0.294654
0.31111
0.314365
0.304386
0.302422
0.308836
0.315924
0.346834
0.416336
0.514973
0.595645
0.634179
0.655954
0.716435
0.743509
0.778741
0.846589
0.916248
0.976322
1.02467
1.07675
1.12419
1.16067
1.1843
1.17163
1.16709
1.16666
1.13961
1.08785
0.998329
)
;
    }
    lowerWall
    {
        type            kqRWallFunction;
        value           nonuniform List<scalar> 
62
(
0.0050593
0.00885091
0.0136428
0.0173912
0.0204279
0.022791
0.0247863
0.0265373
0.0281085
0.0295226
0.0307734
0.031835
0.032666
0.0332053
0.0333501
0.0331597
0.0325562
0.0313422
0.0294505
0.0269147
0.023794
0.0204999
0.0170626
0.0170626
0.030996
0.0420159
0.0524218
0.0623394
0.0706208
0.0788928
0.0898189
0.10663
0.0916889
0.0781754
0.0768357
0.00938519
0.0271681
0.0389919
0.0469401
0.0517025
0.0543515
0.0570523
0.0738537
0.00938519
0.0245661
0.0378996
0.0499563
0.0604952
0.0688884
0.0749915
0.0791552
0.0820547
0.0845181
0.0870936
0.0893944
0.089309
0.0844899
0.0740029
0.0596423
0.0443618
0.0285091
0.00860881
)
;
    }
    atmosphere
    {
        type            inletOutlet;
        inletValue      uniform 0.1;
        value           nonuniform List<scalar> 
46
(
0.1
0.1
0.1
0.1
0.1
0.1
0.1
0.1
0.1
0.1
0.1
0.1
0.1
0.1
0.1
0.1
0.1
0.1
0.1
0.1
0.1
0.1
0.1
0.1
0.1
0.1
0.1
0.1
0.1
0.1
0.1
0.1
0.1
0.1
0.1
0.1
0.1
0.1
0.1
0.1
1.56025
1.90795
2.17183
1.91334
1.43508
0.998329
)
;
    }
    defaultFaces
    {
        type            empty;
    }
}


// ************************************************************************* //
