/*--------------------------------*- C++ -*----------------------------------*\
| =========                 |                                                 |
| \\      /  F ield         | OpenFOAM: The Open Source CFD Toolbox           |
|  \\    /   O peration     | Version:  v2012                                 |
|   \\  /    A nd           | Website:  www.openfoam.com                      |
|    \\/     M anipulation  |                                                 |
\*---------------------------------------------------------------------------*/
FoamFile
{
    version     2.0;
    format      ascii;
    class       volScalarField;
    location    "0.45";
    object      nut;
}
// * * * * * * * * * * * * * * * * * * * * * * * * * * * * * * * * * * * * * //

dimensions      [0 2 -1 0 0 0 0];


internalField   nonuniform List<scalar> 
2268
(
6.48863e-05
6.3121e-05
7.82827e-05
8.83358e-05
9.56796e-05
0.000101012
0.000105292
0.0001089
0.000112032
0.000114771
0.000117135
0.0001191
0.000120608
0.000121567
0.000121798
0.000121442
0.000120313
0.000118018
0.000114356
0.000109256
0.000102657
9.52871e-05
8.73182e-05
0.000125842
0.000407551
0.000593628
0.000716955
0.000800723
0.000863828
0.00091292
0.000952475
0.000984959
0.00101154
0.00103265
0.00104837
0.00105855
0.00106284
0.00105989
0.0010364
0.000988639
0.000919263
0.000834907
0.000748097
0.000669447
0.000594974
0.00024851
0.000134399
0.000654644
0.000987828
0.00123138
0.00142192
0.00157609
0.0017035
0.00181037
0.00190027
0.00197498
0.00203527
0.00208139
0.00211312
0.00212958
0.00212759
0.00209237
0.002011
0.00187702
0.00169102
0.0014712
0.00124801
0.00102576
0.000288503
0.000138986
0.000782728
0.00121786
0.00156322
0.00185159
0.00209714
0.00230841
0.00249081
0.00264742
0.00277989
0.00288907
0.00297528
0.00303833
0.00307684
0.00308624
0.00305172
0.00295564
0.00278296
0.0025249
0.00219389
0.00182246
0.00138422
0.000321793
0.000144913
0.000829563
0.00133665
0.0017618
0.00213554
0.0024669
0.00276033
0.00301861
0.00324352
0.00343625
0.00359767
0.00372831
0.00382803
0.00389512
0.00392395
0.00389928
0.00380092
0.0036077
0.00330278
0.00288819
0.0023798
0.0017011
0.000350738
0.000150008
0.000836915
0.0013809
0.00186533
0.00231283
0.00272346
0.00309495
0.00342621
0.00371732
0.00396903
0.00418243
0.00435837
0.0044969
0.00459608
0.00464949
0.00464138
0.00454987
0.00434921
0.00401567
0.00353863
0.00290603
0.00198581
0.000373155
0.000153442
0.00081867
0.00137312
0.0019009
0.00241276
0.00289629
0.00334051
0.00373988
0.00409283
0.00439998
0.00466281
0.0048827
0.00505999
0.0051926
0.00527349
0.00528666
0.00520914
0.0050112
0.00466283
0.00413982
0.00339845
0.00225143
0.000394079
0.000155066
0.00077708
0.00132633
0.00188829
0.00245813
0.00300842
0.00351886
0.00397979
0.00438856
0.00474601
0.00505425
0.00531531
0.00552985
0.00569572
0.00580533
0.00584304
0.00578543
0.0055987
0.00524727
0.00469443
0.00386964
0.00253672
0.00042016
6.6715e-05
0.000109433
0.000135837
0.000155751
0.000171332
0.00018291
0.000191146
0.000197038
0.000201762
0.000206419
0.000211437
0.000216603
0.000219299
0.00021725
0.000208307
0.000192381
0.0001713
0.000138814
9.5658e-05
0.000275636
0.000604744
0.000711397
0.00076981
0.000846216
0.000969136
0.00113446
0.00130603
0.00145904
0.00161938
0.00181776
0.002051
0.00229887
0.00249107
0.00254454
0.00240191
0.0020357
0.00135357
0.000258853
0.000331639
0.00106817
0.00134083
0.00157608
0.00185337
0.00218376
0.00253145
0.00284053
0.00308367
0.00329087
0.0035139
0.00378368
0.00407379
0.00427175
0.00422374
0.00382793
0.0030925
0.00195895
0.000356264
0.00036373
0.00144236
0.00188147
0.00225071
0.00261065
0.00298181
0.00336696
0.00373578
0.004039
0.00426437
0.00445542
0.00465768
0.00490166
0.00508561
0.00500579
0.00449736
0.00359613
0.00225642
0.000449801
0.000380732
0.00169486
0.00224163
0.00265101
0.00300146
0.00337129
0.00379817
0.00424257
0.00461243
0.00485522
0.00501935
0.00514357
0.00530635
0.00546447
0.0053902
0.00482065
0.00383167
0.00239708
0.000532591
0.000388327
0.00183127
0.00243657
0.00284161
0.00317146
0.00355394
0.0040297
0.00455461
0.00499799
0.00526654
0.00542041
0.00549342
0.00555092
0.00563993
0.00557271
0.00494941
0.00390097
0.00243885
0.000598536
0.000393394
0.00186867
0.00252209
0.00291531
0.00321433
0.00356855
0.00403155
0.00459747
0.00509235
0.0053833
0.0055499
0.00563653
0.00564645
0.00567963
0.00565468
0.00497889
0.00386698
0.00240401
0.000644174
0.000407022
0.00180254
0.0024889
0.00286189
0.00307938
0.00330502
0.00364463
0.00414141
0.00459256
0.00485481
0.00500775
0.00514002
0.00519726
0.00530444
0.00560506
0.00495519
0.00378959
0.00231276
0.000669337
0.00015459
0.000696716
0.00122869
0.00182813
0.00246933
0.00310449
0.00370066
0.00424278
0.00472681
0.005154
0.00552749
0.00585035
0.00612403
0.00634658
0.00650994
0.00659595
0.00657853
0.00642168
0.00608371
0.00551362
0.00462705
0.00325836
0.00124697
0.000150992
0.000543888
0.00105328
0.00171139
0.00243649
0.00315367
0.00382348
0.00443184
0.00497703
0.00546244
0.00589303
0.00627353
0.00660674
0.00689114
0.00711739
0.00726475
0.00730303
0.00719507
0.00690063
0.00636595
0.00551492
0.00424867
0.00252966
0.000149363
0.000403217
0.000931013
0.00166803
0.00244596
0.00319864
0.00389689
0.0045311
0.005102
0.00561464
0.00607517
0.00648909
0.00685972
0.00718637
0.00745603
0.0076477
0.00773314
0.00768539
0.00747201
0.00704041
0.00632853
0.0052944
0.00397511
0.00019282
0.000490495
0.0010199
0.00172738
0.00248755
0.00323067
0.00392273
0.00455223
0.00511923
0.00562848
0.00608598
0.00649714
0.00687274
0.00723995
0.0075525
0.00777761
0.00790006
0.0079033
0.00776334
0.00744415
0.0069103
0.00616162
0.00527787
0.000274876
0.00137552
0.0023531
0.00317579
0.0039253
0.00464152
0.00531667
0.00593735
0.00649487
0.00698352
0.00739513
0.00770935
0.00786626
0.00761238
0.00764116
0.00781067
0.00791448
0.00790422
0.00777123
0.0075039
0.00709949
0.00659173
0.00607158
0.000285405
0.00170807
0.00292911
0.00388217
0.00471916
0.00549863
0.00621991
0.00687613
0.00746302
0.00797784
0.00841637
0.00876978
0.00902331
0.00916359
0.0093045
0.00939803
0.0093105
0.00871599
0.00790767
0.00753699
0.00708988
0.00660597
0.00621858
0.00027602
0.00180686
0.00321411
0.00432218
0.00528611
0.00615372
0.0069361
0.00763738
0.00826178
0.00881352
0.00929543
0.00970786
0.0100496
0.010322
0.0105369
0.010668
0.0106599
0.0104482
0.0101051
0.00971701
0.00900064
0.00718295
0.00632768
0.000269533
0.00181934
0.00334405
0.00461545
0.00571087
0.00667072
0.00751633
0.00826269
0.00892261
0.00950717
0.0100249
0.0104812
0.010878
0.0112148
0.0114873
0.0116802
0.0117712
0.0117405
0.0116092
0.0113838
0.0109805
0.0102738
0.0096623
0.000267657
0.00178502
0.0034154
0.00482916
0.00603922
0.00708003
0.00798077
0.00876538
0.00945388
0.0100627
0.0106046
0.0110878
0.0115165
0.0118904
0.0122047
0.0124506
0.0126179
0.0126988
0.012694
0.0126067
0.012416
0.0121031
0.011761
0.000267368
0.00175854
0.00347253
0.00499512
0.00629421
0.00739824
0.00834169
0.00915524
0.00986446
0.0104898
0.0110466
0.0115454
0.0119918
0.0123869
0.012728
0.0130099
0.0132268
0.0133745
0.0134518
0.0134577
0.0133898
0.013251
0.0130686
0.000267386
0.00175254
0.00352604
0.00512376
0.00648553
0.00763449
0.00860805
0.00944154
0.0101645
0.0108001
0.0113658
0.0118731
0.0123289
0.0127354
0.0130915
0.0133939
0.0136388
0.0138231
0.0139454
0.0140057
0.0140062
0.0139513
0.0138498
0.000267082
0.00175678
0.00357033
0.00521551
0.00661742
0.0077954
0.00878826
0.00963416
0.0103653
0.0110068
0.0115771
0.0120888
0.012549
0.0129606
0.0133234
0.0136352
0.013893
0.0140945
0.0142381
0.0143243
0.0143559
0.0143371
0.0142717
0.000266122
0.0017615
0.00359832
0.00526962
0.00669393
0.00788823
0.00889174
0.0097442
0.0104794
0.0111236
0.011696
0.0122093
0.0126709
0.0130838
0.013448
0.0137619
0.0140229
0.0142291
0.0143792
0.0144739
0.0145156
0.0145078
0.0144522
0.00026442
0.00176052
0.00360613
0.00528764
0.00672101
0.00792185
0.00892933
0.00978389
0.0105201
0.011165
0.0117379
0.0122514
0.0127128
0.0131248
0.0134874
0.0137989
0.014057
0.01426
0.0144071
0.0144993
0.014539
0.0145293
0.0144706
0.000262042
0.001751
0.00359351
0.00527368
0.00670639
0.00790644
0.00891278
0.00976603
0.0105011
0.0111452
0.0117176
0.0122308
0.0126915
0.0131019
0.0134614
0.0137682
0.0140198
0.0142148
0.0143528
0.0144353
0.0144653
0.014446
0.0143779
0.000259136
0.00173253
0.00356276
0.0052335
0.0066587
0.00785267
0.00885403
0.0097033
0.0104354
0.0110775
0.0116489
0.0121616
0.0126216
0.0130306
0.013387
0.0136883
0.0139318
0.0141158
0.0142407
0.0143089
0.0143242
0.0142911
0.0142106
0.000255893
0.00170633
0.00351759
0.00517338
0.00658648
0.00777072
0.00876432
0.00960752
0.0103351
0.0109742
0.0115439
0.0120559
0.0125156
0.0129236
0.0132774
0.0135735
0.0138083
0.0139801
0.0140897
0.0141407
0.0141388
0.0140901
0.0139973
0.000252522
0.00167447
0.00346212
0.00509936
0.00649749
0.00766971
0.00865367
0.00948915
0.0102108
0.0108456
0.0114126
0.0119234
0.0123828
0.0127904
0.0131424
0.0134339
0.0136604
0.0138197
0.0139132
0.0139462
0.0139268
0.0138636
0.0137612
0.000249241
0.0016393
0.00340032
0.00501681
0.00639838
0.00755735
0.00853052
0.00935704
0.0100712
0.0107003
0.0112634
0.011772
0.0122307
0.012638
0.0129889
0.0132767
0.0134957
0.0136432
0.0137213
0.0137373
0.0137024
0.0136283
0.0135218
0.000246265
0.00160304
0.00333569
0.00493027
0.00629468
0.00743999
0.00840177
0.00921833
0.00992372
0.0105453
0.0111026
0.0116076
0.0120645
0.0124714
0.0128216
0.0131068
0.0133197
0.0134571
0.0135218
0.0135239
0.0134778
0.0133988
0.0132957
0.000243798
0.00156765
0.00327122
0.00484358
0.00619103
0.00732286
0.008273
0.00907873
0.00977381
0.0103859
0.0109353
0.0114347
0.0118885
0.0122942
0.0126442
0.0129281
0.0131369
0.0132668
0.0133218
0.0133144
0.0132633
0.0131869
0.0130957
0.000242028
0.00153476
0.00320951
0.00476017
0.00609149
0.0072104
0.0081488
0.00894279
0.00962589
0.0102263
0.0107654
0.0112567
0.0117055
0.0121094
0.0124594
0.0127435
0.0129511
0.0130773
0.0131273
0.0131165
0.0130673
0.0130015
0.0129302
0.000241116
0.00150574
0.00315289
0.00468324
0.00599983
0.00710662
0.00803311
0.00881422
0.00948341
0.0100696
0.0105955
0.0110761
0.011518
0.0119189
0.0122694
0.0125558
0.0127654
0.0128926
0.0129431
0.0129354
0.0128953
0.0128473
0.0128026
0.000241186
0.00148159
0.00310355
0.00461598
0.00591981
0.00701533
0.0079295
0.00869622
0.00934915
0.00991831
0.010428
0.0108951
0.0113277
0.0117246
0.0120759
0.0123666
0.012582
0.012715
0.012772
0.0127736
0.012749
0.0127244
0.0127109
0.000242321
0.00146306
0.0030636
0.00456167
0.00585522
0.00694027
0.00784133
0.00859164
0.00922552
0.00977444
0.0102646
0.0107151
0.011136
0.0115274
0.0118798
0.0121768
0.0124016
0.0125454
0.0126143
0.0126307
0.0126262
0.0126287
0.0126488
0.000244551
0.00145063
0.00303511
0.0045236
0.00580979
0.00688505
0.00777172
0.00850304
0.00911459
0.00963971
0.0101068
0.0105374
0.0109438
0.011328
0.0116811
0.0119859
0.0122234
0.0123823
0.0124676
0.0125027
0.0125213
0.0125526
0.0126066
0.000247862
0.00144467
0.00302008
0.0045049
0.005787
0.00685289
0.00772338
0.00843261
0.00901813
0.00951566
0.00995602
0.0103631
0.010752
0.0111267
0.0114796
0.0117928
0.0120451
0.0122223
0.0123274
0.0123837
0.0124263
0.0124859
0.0125723
0.000252195
0.00144559
0.0030204
0.00450833
0.00578977
0.00684639
0.00769842
0.00838199
0.00893753
0.00940356
0.00981346
0.0101936
0.0105615
0.0109238
0.0112744
0.0115955
0.0118636
0.012061
0.0121877
0.0122658
0.0123316
0.012417
0.0125328
0.000257458
0.00145398
0.00303774
0.00453607
0.0058202
0.00686725
0.00769809
0.00835215
0.00887367
0.00930442
0.00968036
0.0100301
0.0103735
0.0107198
0.011065
0.0113919
0.0116752
0.0118932
0.0120417
0.0121407
0.0122267
0.0123338
0.0124742
0.00026353
0.00147055
0.00307343
0.0045896
0.00587948
0.00691615
0.00772263
0.00834317
0.00882682
0.00921892
0.00955785
0.00987408
0.0101895
0.0105157
0.0108512
0.0111803
0.0114765
0.0117138
0.0118827
0.0119998
0.0121014
0.0122239
0.0123822
0.000270278
0.00149596
0.00312837
0.00466968
0.0059679
0.00699276
0.00777127
0.00835428
0.00879658
0.00914732
0.00944695
0.00972718
0.0100113
0.0103131
0.0106339
0.0109601
0.0112649
0.0115185
0.011705
0.0118359
0.0119464
0.0120757
0.0122429
0.000277577
0.00153063
0.00320303
0.00477665
0.00608513
0.00709588
0.00784231
0.00838382
0.00878189
0.00908944
0.00934844
0.00959111
0.00984135
0.0101145
0.0104149
0.0107317
0.0110392
0.0113043
0.0115043
0.0116434
0.0117545
0.0118794
0.0120436
0.000285331
0.00157463
0.00329773
0.00491077
0.00623052
0.00722368
0.00793325
0.0084294
0.00878107
0.00904466
0.00926288
0.00946751
0.00968216
0.00992311
0.0101971
0.0104972
0.0107999
0.0110703
0.0112785
0.0114197
0.0115216
0.011629
0.0117747
0.000293499
0.00162805
0.00341335
0.00507298
0.00640359
0.00737396
0.00804095
0.008488
0.00879193
0.00901195
0.00919049
0.00935786
0.00953645
0.00974253
0.00998493
0.0102606
0.0105498
0.010818
0.0110286
0.0111658
0.011249
0.0113237
0.011432
0.000302111
0.0016918
0.00355213
0.0052656
0.00660435
0.00754425
0.00816176
0.00855614
0.00881192
0.00898994
0.00913113
0.00926332
0.00940673
0.00957674
0.00978339
0.0100273
0.0102941
0.0105514
0.0107585
0.0108871
0.010944
0.0109711
0.0110198
0.000311297
0.00176881
0.00371862
0.0054931
0.00683355
0.00773185
0.00829162
0.00863003
0.00883829
0.00897705
0.00908435
0.00918459
0.00929509
0.00942951
0.00959809
0.00980453
0.01004
0.0102775
0.0104751
0.0105932
0.0106208
0.0105894
0.0105563
0.000321341
0.00186249
0.00392135
0.0057626
0.00709261
0.00793361
0.00842599
0.00870577
0.00886828
0.00897159
0.00904933
0.00912179
0.00920289
0.00930392
0.00943436
0.00959982
0.00979669
0.0100054
0.0101874
0.0102957
0.0102992
0.0102087
0.0100774
0.000332659
0.00197446
0.00417838
0.00608659
0.00738356
0.00814554
0.00855988
0.00877948
0.00889935
0.00897188
0.00902501
0.00907443
0.00913053
0.00920194
0.00929659
0.00942059
0.00957439
0.00974621
0.00990582
0.0100059
0.00999878
0.00986619
0.00964016
0.000345823
0.00213097
0.00452647
0.00648836
0.00770885
0.00836232
0.00868787
0.00884762
0.00892932
0.00897641
0.00901006
0.00904135
0.00907736
0.00912404
0.00918732
0.00927263
0.0093826
0.00951211
0.00964157
0.00973217
0.009731
0.00959243
0.00930944
0.000362237
0.00237727
0.00503585
0.00700019
0.00806894
0.00857594
0.00880408
0.00890718
0.00895661
0.00898388
0.00900301
0.00902085
0.00904163
0.00906898
0.00910672
0.00915884
0.00922831
0.00931426
0.00940688
0.00948137
0.00949449
0.00939114
0.00912615
0.000385822
0.00284119
0.00586242
0.00766184
0.00845359
0.00877384
0.00890244
0.00895595
0.00898019
0.00899314
0.00900214
0.0090106
0.00902057
0.00903382
0.00905236
0.00907843
0.00911415
0.00916021
0.00921334
0.00926214
0.00928227
0.00923351
0.00906383
0.000428258
0.00412013
0.00737458
0.00848552
0.00882562
0.00893735
0.00897721
0.00899268
0.00899942
0.00900296
0.00900543
0.00900777
0.00901055
0.00901428
0.00901953
0.009027
0.00903744
0.00905132
0.00906813
0.00908512
0.00909533
0.00908498
0.00903123
0.000458117
0.000423062
0.000390146
0.000388419
0.0015835
0.0013152
0.00121981
0.00122126
0.00314784
0.00271111
0.00244659
0.00230149
0.00469731
0.00430749
0.00399725
0.00376137
0.00573453
0.00547773
0.0052369
0.00501753
0.00600858
0.00584364
0.00568808
0.00554154
0.00607268
0.00589095
0.00572216
0.00558808
0.00928057
0.0089525
0.00849054
0.00771847
0.0115087
0.0113004
0.0110572
0.0107658
0.0129113
0.0127768
0.0126258
0.0124554
0.0137431
0.0136435
0.0135288
0.0133975
0.0141864
0.0141002
0.0139977
0.0138774
0.0143702
0.0142848
0.014182
0.014061
0.0143835
0.0142935
0.0141855
0.0140587
0.0142823
0.0141861
0.0140715
0.0139381
0.0141058
0.0140035
0.0138832
0.0137445
0.0138846
0.0137779
0.0136542
0.0135132
0.0136439
0.013536
0.0134126
0.0132734
0.0134052
0.0133003
0.0131818
0.0130494
0.013186
0.0130887
0.0129801
0.0128596
0.0129993
0.0129142
0.0128201
0.012716
0.0128526
0.0127838
0.0127078
0.0126236
0.012748
0.0126981
0.0126429
0.0125809
0.0126818
0.0126525
0.0126195
0.012581
0.0126462
0.012638
0.0126276
0.012613
0.01263
0.0126428
0.0126547
0.0126634
0.0126204
0.0126533
0.0126864
0.0127176
0.0126031
0.0126548
0.0127078
0.01276
0.0125634
0.0126319
0.012703
0.0127744
0.0124856
0.0125685
0.0126553
0.0127438
0.0123544
0.0124481
0.0125475
0.0126502
0.0121547
0.0122547
0.0123623
0.0124755
0.0118742
0.0119739
0.0120838
0.012202
0.0115051
0.0115955
0.0116992
0.0118147
0.0110478
0.0111167
0.0112024
0.0113044
0.0105166
0.0105478
0.0105992
0.0106717
0.00994746
0.00992258
0.00991973
0.00994217
0.0094064
0.00930694
0.00922707
0.00917399
0.00898594
0.00880535
0.00863229
0.0084789
0.00877829
0.00854632
0.00829664
0.00804321
0.00880201
0.00859926
0.00835656
0.00807994
0.00893456
0.00885029
0.00873982
0.00860064
0.0010079
0.00167046
0.00204384
0.00233551
0.00227474
0.00224992
0.00240742
0.00254072
0.0026676
0.00281571
0.00300896
0.00320408
0.00333393
0.00325893
0.00494758
0.00481781
0.00373374
0.00220813
0.000676869
0.00141558
0.00168126
0.00202169
0.00237272
0.00246334
0.00249331
0.00257652
0.00270553
0.00286233
0.00303423
0.00319063
0.00332142
0.0034354
0.00354451
0.00367952
0.00365023
0.00361534
0.00215181
0.000663854
0.00222681
0.0022943
0.0024838
0.00265994
0.00276572
0.00283772
0.00292344
0.00303467
0.00315432
0.00327029
0.0033746
0.00346776
0.0035535
0.00363503
0.00372197
0.00380705
0.00377409
0.00239999
0.000633604
0.00347835
0.00334227
0.00332601
0.00336833
0.00342742
0.00348485
0.00353698
0.00358041
0.00361351
0.00364099
0.00366906
0.00370144
0.00373915
0.00378038
0.00382239
0.00386315
0.00385216
0.00316246
0.000622813
0.00468305
0.00442755
0.00427957
0.00421573
0.00419454
0.00417952
0.00415005
0.00410283
0.0040464
0.00399297
0.00395344
0.00393399
0.00393522
0.00394841
0.00395639
0.00394841
0.00386945
0.00313967
0.000643165
0.00527878
0.00501936
0.0048344
0.00472873
0.00465868
0.00459001
0.00450165
0.00439212
0.00427819
0.00418073
0.00411348
0.00408069
0.00407976
0.00409443
0.00409492
0.00404254
0.003857
0.00312026
0.000637945
0.00535715
0.00512215
0.00494438
0.00483735
0.00475735
0.0046767
0.00457709
0.00445661
0.00433008
0.00422264
0.00415291
0.00413512
0.00417067
0.0042069
0.00419883
0.00408898
0.00372918
0.00286412
0.000633716
0.00645703
0.00574926
0.00537149
0.00512162
0.00500162
0.00493157
0.00491773
0.0050132
0.00502831
0.00476739
0.00439522
0.00422183
0.00423022
0.00428381
0.00423279
0.00399943
0.00340985
0.00251099
0.000636063
0.0102401
0.00972656
0.00929519
0.00890334
0.00856982
0.00828344
0.00804038
0.0078168
0.00752005
0.00705901
0.00645601
0.00599078
0.00532342
0.00422537
0.00412854
0.00370051
0.00293747
0.00214243
0.000659852
0.0121419
0.0117421
0.0113343
0.0109199
0.01051
0.0101092
0.00972211
0.00934235
0.0089342
0.00843028
0.00773327
0.00681621
0.00561268
0.0039254
0.0037147
0.00327006
0.00251707
0.00188705
0.000693653
0.0131513
0.0128007
0.012409
0.0119914
0.0115627
0.0111332
0.0107106
0.0102963
0.00987184
0.00937519
0.00866645
0.00757434
0.00638316
0.0050176
0.00300228
0.00288343
0.00224469
0.00175643
0.000732281
0.0136485
0.0133127
0.0129285
0.0125135
0.012085
0.0116568
0.0112386
0.0108319
0.0104177
0.00993159
0.00923697
0.00817232
0.00702285
0.00571893
0.00260426
0.00256239
0.00205229
0.00168823
0.000769017
0.0138314
0.0134956
0.0131114
0.012697
0.0122707
0.0118486
0.0114421
0.0110514
0.0106531
0.0101802
0.00951151
0.00852921
0.00740886
0.00615849
0.00240156
0.00226387
0.00186708
0.00162714
0.000799042
0.0138207
0.0134788
0.0130919
0.012676
0.0122497
0.0118307
0.0114319
0.011054
0.0106717
0.0102189
0.00958842
0.00869096
0.00761754
0.00642122
0.00251978
0.00194455
0.00163839
0.0015372
0.000819476
0.0136912
0.013343
0.0129533
0.0125361
0.0121081
0.011688
0.0112913
0.0109209
0.0105539
0.0101286
0.00954888
0.0087359
0.00772401
0.00658477
0.00343804
0.0014988
0.00139019
0.00140227
0.000822608
0.013492
0.0131418
0.0127512
0.0123334
0.0119018
0.0114768
0.0110768
0.0107095
0.0103575
0.00996661
0.00944893
0.00871895
0.00772923
0.0065058
0.00348995
0.00138744
0.00122929
0.00124674
0.000808494
0.013261
0.0129153
0.0125278
0.012108
0.01167
0.0112343
0.0108246
0.0104552
0.0101166
0.00976309
0.00930965
0.00864393
0.00756576
0.00590995
0.00266824
0.00172797
0.00124059
0.00112953
0.00079703
0.013029
0.0126953
0.0123152
0.0118918
0.0114418
0.0109867
0.0105573
0.0101763
0.00984354
0.00952057
0.00911963
0.00848554
0.00718806
0.00492719
0.00210545
0.00185877
0.00130222
0.00104748
0.000798023
0.0128209
0.0125069
0.0121381
0.011711
0.0112404
0.0107541
0.0102901
0.00988114
0.00953626
0.00922419
0.00885348
0.00821179
0.00677711
0.00338537
0.00232743
0.0018418
0.00127205
0.00104746
0.000802852
0.0126549
0.012368
0.0120142
0.0115826
0.011084
0.0105536
0.0100367
0.00957645
0.0091918
0.00886399
0.00851549
0.0079184
0.00657949
0.00319259
0.00215524
0.00164509
0.00126762
0.00120128
0.000842425
0.012542
0.0122885
0.0119538
0.0115192
0.0109897
0.0104039
0.00981553
0.00927736
0.00881925
0.00844714
0.00812976
0.00771883
0.00672526
0.00471706
0.00230239
0.00145761
0.00149238
0.00171734
0.000957572
0.0124857
0.012271
0.0119607
0.0115281
0.0109712
0.0103257
0.00965344
0.00901378
0.00844826
0.00799508
0.00768422
0.00742193
0.00671128
0.0051717
0.00345904
0.00213252
0.00214771
0.00302973
0.00102717
0.0124827
0.0123115
0.0120322
0.0116112
0.0110379
0.0103405
0.00958358
0.00883142
0.00812938
0.00752085
0.00708907
0.00678971
0.00614932
0.00485543
0.00391561
0.00385853
0.00438302
0.00441204
0.00109504
0.0125244
0.0124005
0.01216
0.0117638
0.0111924
0.0104619
0.00963469
0.00877718
0.00790115
0.00701376
0.00618177
0.00522995
0.00368353
0.00267962
0.00300535
0.00439707
0.0052697
0.00477187
0.00116417
0.0125985
0.0125246
0.0123302
0.0119735
0.011426
0.0106875
0.00981272
0.00886089
0.00778135
0.00646749
0.00492309
0.00320121
0.00238413
0.00197911
0.00223814
0.00479021
0.00674107
0.00477598
0.00105543
0.0126905
0.0126679
0.0125255
0.0122207
0.0117178
0.0109977
0.0100971
0.00906087
0.00777567
0.00606088
0.00368382
0.00275836
0.00248321
0.00199658
0.00148638
0.00553451
0.00735257
0.00463951
0.00120273
0.0127848
0.0128133
0.012726
0.0124818
0.012038
0.0113561
0.0104472
0.00935167
0.00789639
0.00580005
0.00299501
0.00275236
0.00253963
0.00206806
0.00147404
0.00388425
0.0074271
0.00464916
0.00123215
0.0128654
0.0129434
0.012912
0.012732
0.0123558
0.0117245
0.0108152
0.00970476
0.00821815
0.0059366
0.00298258
0.00275882
0.00256623
0.00208196
0.00154159
0.00236867
0.00680214
0.00492575
0.00129235
0.0129154
0.0130406
0.0130641
0.0129493
0.0126455
0.0120813
0.0111828
0.0100568
0.00869157
0.00654066
0.00324655
0.00277344
0.00259379
0.00210669
0.00155733
0.00180248
0.00603779
0.00509914
0.00138593
0.0129174
0.0130867
0.0131634
0.0131128
0.0128827
0.0123907
0.0115232
0.0103489
0.00909039
0.00728189
0.00399819
0.00282594
0.00264539
0.0021639
0.00159026
0.00149751
0.00559477
0.0051855
0.00146703
0.0128528
0.0130624
0.0131901
0.0132028
0.0130487
0.0126407
0.0118444
0.0106673
0.00938138
0.00777029
0.00487466
0.00290586
0.00272275
0.00226044
0.00165826
0.00139846
0.00530644
0.0052186
0.00150239
0.0127019
0.0129466
0.0131221
0.013197
0.0131229
0.0128165
0.0121451
0.0110242
0.00968682
0.00809329
0.00536748
0.00301182
0.00281212
0.00237899
0.00175651
0.0013448
0.00508246
0.00521951
0.00151886
0.0124448
0.012717
0.0129351
0.0130688
0.013076
0.0128849
0.0123786
0.0114031
0.0100601
0.00845938
0.00563309
0.00308702
0.00288518
0.00246757
0.00185144
0.00140085
0.00479228
0.00519181
0.00153879
0.0120632
0.0123515
0.0126034
0.0127879
0.0128708
0.0127963
0.0124703
0.0117606
0.0105686
0.00895305
0.00645258
0.00310974
0.00289914
0.00249568
0.00192933
0.00163807
0.00391889
0.00507493
0.00156426
0.0115428
0.0118304
0.0121024
0.0123247
0.0124687
0.0124963
0.0123393
0.0118938
0.0110358
0.00966715
0.00755109
0.00330846
0.00285431
0.00246825
0.00200618
0.00183439
0.00327132
0.00496211
0.00158712
0.0108771
0.0111394
0.011412
0.0116538
0.0118374
0.0119384
0.0119162
0.0117006
0.0111873
0.0102372
0.00855341
0.00546195
0.00287622
0.0024541
0.00208872
0.00208311
0.00342867
0.005034
0.00164291
0.010082
0.0102799
0.0105217
0.0107572
0.0109549
0.0110925
0.0111542
0.0111076
0.0108921
0.0103892
0.00934511
0.0073859
0.0043087
0.00258469
0.0021728
0.00285397
0.00394298
0.00508163
0.00161521
0.00920305
0.00927928
0.00944429
0.00963629
0.0098111
0.00994625
0.0100345
0.0100723
0.0100554
0.00992526
0.00950822
0.00840276
0.00649913
0.00416208
0.00316107
0.00431946
0.00507558
0.00496626
0.00160671
0.00834195
0.00821061
0.00822318
0.00831432
0.00842369
0.00851227
0.00856901
0.00861003
0.0086608
0.00874406
0.00877684
0.00848294
0.0073793
0.00590206
0.00532044
0.00585552
0.0058119
0.00473711
0.00162681
0.00770445
0.00726207
0.00699808
0.00687908
0.00684273
0.00683128
0.00681189
0.00678846
0.00680805
0.00694738
0.00724637
0.00754954
0.00740787
0.00665057
0.00639881
0.00670827
0.0059974
0.00429845
0.00162374
0.00762036
0.00686845
0.00619968
0.00568321
0.00531927
0.00506511
0.00487389
0.00472419
0.0046432
0.0047262
0.00512169
0.00594047
0.00695463
0.00699619
0.007004
0.00698397
0.00584894
0.00392829
0.00161254
0.00832543
0.0077556
0.00703843
0.00623188
0.00540483
0.00460862
0.0038694
0.0031994
0.00262245
0.00223979
0.00228929
0.00316379
0.00535454
0.00714336
0.00725467
0.00688509
0.00554671
0.00370256
0.00157954
)
;

boundaryField
{
    leftWall
    {
        type            nutkWallFunction;
        blending        stepwise;
        Cmu             0.09;
        kappa           0.41;
        E               9.8;
        value           nonuniform List<scalar> 
50
(
1.2011e-05
1.4752e-05
1.5687e-05
1.62074e-05
1.68666e-05
1.74287e-05
1.78093e-05
1.79988e-05
1.79732e-05
1.76076e-05
1.74713e-05
1.80328e-05
2.99562e-05
3.19932e-05
3.07686e-05
2.98405e-05
2.96048e-05
2.95852e-05
2.96126e-05
2.95954e-05
2.94841e-05
2.92657e-05
2.89485e-05
2.85525e-05
2.81039e-05
2.76319e-05
2.71672e-05
2.67401e-05
2.63803e-05
2.61151e-05
2.59687e-05
2.59602e-05
2.61024e-05
2.64015e-05
2.68562e-05
2.74591e-05
2.8197e-05
2.90524e-05
3.00059e-05
3.10384e-05
3.21349e-05
3.32875e-05
3.44984e-05
3.57827e-05
3.71748e-05
3.87279e-05
4.05069e-05
4.26727e-05
4.56732e-05
5.08181e-05
)
;
    }
    rightWall
    {
        type            nutkWallFunction;
        blending        stepwise;
        Cmu             0.09;
        kappa           0.41;
        E               9.8;
        value           nonuniform List<scalar> 
50
(
1.20674e-05
2.35002e-05
3.46256e-05
4.58021e-05
5.65307e-05
6.61448e-05
7.40043e-05
7.96891e-05
8.32145e-05
8.52325e-05
8.24893e-05
7.56516e-05
7.31043e-05
6.77019e-05
6.66364e-05
6.78019e-05
7.13691e-05
7.57613e-05
8.01265e-05
8.40117e-05
8.7183e-05
8.93047e-05
8.89323e-05
8.72916e-05
8.70075e-05
8.79106e-05
8.88228e-05
9.26756e-05
0.000100584
0.000110803
0.000118394
0.000121938
0.00012551
0.000139463
0.000147855
0.000155281
0.000164002
0.000172263
0.00017797
0.000179501
0.000183614
0.000187356
0.000190116
0.000191318
0.000182366
0.000188071
0.000198922
0.00019721
0.000193329
0.000185712
)
;
    }
    lowerWall
    {
        type            nutkWallFunction;
        blending        stepwise;
        Cmu             0.09;
        kappa           0.41;
        E               9.8;
        value           nonuniform List<scalar> 
62
(
5.80322e-06
7.65474e-06
9.4368e-06
1.0597e-05
1.14381e-05
1.20456e-05
1.25318e-05
1.29409e-05
1.32955e-05
1.36053e-05
1.38725e-05
1.40947e-05
1.42657e-05
1.43754e-05
1.44047e-05
1.43662e-05
1.42433e-05
1.39921e-05
1.35897e-05
1.30271e-05
1.22931e-05
1.14579e-05
1.05018e-05
1.05018e-05
2.78496e-05
3.20116e-05
3.54183e-05
3.83339e-05
4.05785e-05
4.26806e-05
4.52799e-05
4.91938e-05
4.59245e-05
4.27054e-05
4.23951e-05
0
2.83913e-05
3.54416e-05
3.95156e-05
4.17717e-05
4.29761e-05
4.41704e-05
5.09708e-05
0
5.74719e-06
9.68818e-06
1.2608e-05
1.48444e-05
1.64706e-05
1.75834e-05
1.83132e-05
1.88086e-05
1.92217e-05
1.96464e-05
2.00197e-05
2.0006e-05
1.9217e-05
1.74067e-05
1.46721e-05
1.131e-05
7.01883e-06
0
)
;
    }
    atmosphere
    {
        type            calculated;
        value           nonuniform List<scalar> 
46
(
0.009
0.009
0.009
0.009
0.009
0.009
0.009
0.009
0.009
0.009
0.009
0.009
0.009
0.009
0.009
0.009
0.009
0.009
0.009
0.009
0.009
0.009
0.009
0.009
0.009
0.009
0.009
0.009
0.009
0.009
0.009
0.009
0.009
0.009
0.009
0.009
0.009
0.009
0.009
0.009
0.00714336
0.00725467
0.00688509
0.00554671
0.00370256
0.00157954
)
;
    }
    defaultFaces
    {
        type            empty;
    }
}


// ************************************************************************* //
