/*--------------------------------*- C++ -*----------------------------------*\
| =========                 |                                                 |
| \\      /  F ield         | OpenFOAM: The Open Source CFD Toolbox           |
|  \\    /   O peration     | Version:  v2012                                 |
|   \\  /    A nd           | Website:  www.openfoam.com                      |
|    \\/     M anipulation  |                                                 |
\*---------------------------------------------------------------------------*/
FoamFile
{
    version     2.0;
    format      ascii;
    class       volScalarField;
    location    "0.45";
    object      p;
}
// * * * * * * * * * * * * * * * * * * * * * * * * * * * * * * * * * * * * * //

dimensions      [1 -1 -2 0 0 0 0];


internalField   nonuniform List<scalar> 
2268
(
710.836
710.567
718.252
729.162
740.113
749.81
758.531
766.819
775.223
784.171
793.994
804.973
817.4
831.66
848.405
868.307
892.134
919.974
950.65
979.622
1000.84
998.874
1025.53
651.506
649.843
656.109
665.755
675.73
685.089
693.834
702.357
711.1
720.449
730.728
742.235
755.288
770.287
787.758
808.611
833.627
863.294
896.627
928.064
950.681
941.001
964.645
591.349
589.923
595.208
603.05
611.758
620.4
628.86
637.39
646.326
655.995
666.709
678.773
692.519
708.363
726.833
748.715
774.786
805.364
839.436
871.423
894.883
888.071
909.38
531.16
530.48
534.985
541.46
548.95
556.744
564.719
573.05
581.994
591.832
602.856
615.366
629.688
646.223
665.464
688.049
714.623
745.26
778.865
810.407
834.791
835.157
860.509
471.186
471.502
475.166
480.501
486.91
493.861
501.28
509.304
518.14
528.037
539.264
552.108
566.873
583.916
603.678
626.669
653.349
683.599
716.313
747.209
772.277
780.62
814.779
411.363
412.494
415.32
419.645
425.101
431.255
438.105
445.781
454.457
464.353
475.721
488.83
503.948
521.372
541.483
564.679
591.258
620.949
652.653
682.753
707.898
723.635
765.376
351.667
353.308
355.239
358.604
363.198
368.6
374.889
382.207
390.703
400.576
412.06
425.403
440.826
458.553
478.9
502.175
528.544
557.611
588.255
617.288
641.505
662.404
707.143
292.225
294.089
294.896
297.116
300.818
305.493
311.244
318.22
326.553
336.426
348.057
361.67
377.419
395.428
415.949
439.224
465.324
493.749
523.306
550.91
572.932
592.752
633.265
383.671
383.566
383.317
382.914
382.417
381.924
381.531
381.27
381.125
381.086
381.181
381.469
381.998
382.717
383.484
384.191
384.784
385.138
385.165
383.643
383.548
383.297
382.872
382.346
381.831
381.433
381.18
381.042
380.997
381.072
381.336
381.84
382.552
383.326
384.041
384.643
385.024
385.084
383.599
383.513
383.251
382.798
382.245
381.717
381.324
381.085
380.957
380.905
380.953
381.174
381.647
382.363
383.155
383.883
384.498
384.91
384.998
383.536
383.458
383.181
382.697
382.117
381.576
381.19
380.972
380.855
380.795
380.812
380.988
381.433
382.172
382.999
383.745
384.37
384.804
384.91
383.45
383.398
383.103
382.578
381.963
381.405
381.032
380.842
380.742
380.673
380.656
380.779
381.192
381.968
382.845
383.617
384.247
384.697
384.825
383.343
383.352
383.034
382.45
381.794
381.22
380.866
380.712
380.631
380.549
380.494
380.553
380.913
381.731
382.685
383.498
384.129
384.588
384.743
383.209
383.347
382.992
382.33
381.634
381.052
380.719
380.6
380.535
380.438
380.339
380.318
380.586
381.447
382.522
383.381
384.005
384.466
384.668
383.09
383.439
383.002
382.238
381.507
380.915
380.596
380.509
380.463
380.35
380.216
380.111
380.296
381.29
382.441
383.224
383.833
384.305
384.611
199.71
200.551
198.949
199.265
201.643
205.371
210.443
216.984
225.126
235.054
246.996
261.15
277.538
296.048
316.838
340.085
365.74
393.236
421.266
446.558
464.42
470.699
461.847
80.8495
77.5213
71.5897
71.2015
72.8825
75.5148
79.2647
84.3017
90.8514
99.2566
109.977
123.505
139.95
158.777
179.874
203.238
228.746
255.783
284.044
310.148
329.97
342.05
357.78
13.8391
10.4379
8.33678
8.70758
9.48678
10.5375
11.9232
13.7097
16.0026
18.9748
22.8962
28.1681
35.2248
44.6293
57.645
73.9554
94.2387
119.613
149.962
178.79
202.355
223.523
249.141
1.65064
1.87057
1.95709
1.94286
1.93728
1.94376
1.953
1.9667
1.98975
2.02387
2.06901
2.1244
2.21573
2.93525
5.41178
9.43531
15.8207
26.9062
44.1407
63.2604
81.6577
101.463
125.97
1.70171
1.70688
1.74901
1.77894
1.80756
1.83627
1.86433
1.89245
1.92164
1.95244
1.98518
2.02057
2.06042
2.10527
2.13722
2.16361
2.13751
2.25478
4.01783
9.36782
16.5834
22.6708
32.3833
1.54949
1.56917
1.59902
1.62558
1.64885
1.67179
1.69616
1.72271
1.75213
1.78498
1.8216
1.86215
1.90612
1.95465
2.00496
2.05711
2.10986
2.13855
2.07752
1.94521
1.80158
1.83035
4.00603
1.42415
1.43413
1.45312
1.47381
1.49441
1.51617
1.54007
1.56663
1.59636
1.62971
1.66691
1.70798
1.7525
1.79925
1.84632
1.89281
1.94127
2.00517
2.08137
2.14267
2.17444
2.04855
1.80899
1.27522
1.28581
1.30064
1.31852
1.33804
1.3596
1.3837
1.41071
1.44095
1.4747
1.51206
1.55299
1.59713
1.64351
1.69113
1.73936
1.78849
1.83885
1.88849
1.93369
2.00284
2.13996
2.2471
1.12134
1.13109
1.1434
1.15929
1.17781
1.199
1.2231
1.25036
1.28097
1.31509
1.35278
1.39396
1.43836
1.4854
1.53448
1.58497
1.63628
1.68766
1.73739
1.78612
1.84309
1.91359
1.96552
0.962557
0.970966
0.981718
0.996149
1.01383
1.03464
1.05868
1.08606
1.11692
1.15137
1.18942
1.231
1.27592
1.32379
1.37417
1.42654
1.48046
1.53555
1.59138
1.64825
1.70845
1.77294
1.83934
0.799438
0.80631
0.815989
0.829437
0.84651
0.867029
0.890985
0.918445
0.949492
0.984192
1.02256
1.06455
1.11
1.15866
1.21018
1.26419
1.32037
1.37853
1.43859
1.50094
1.56689
1.63723
1.71136
0.632291
0.637911
0.646798
0.659554
0.676161
0.696428
0.72029
0.747774
0.778933
0.813815
0.852438
0.894768
0.9407
0.990047
1.04255
1.09793
1.15594
1.21648
1.27956
1.34562
1.41565
1.48998
1.56851
0.461325
0.466134
0.474452
0.486708
0.502934
0.52295
0.546679
0.574119
0.605307
0.64028
0.679061
0.721635
0.76793
0.817808
0.871068
0.927487
0.986888
1.0492
1.1145
1.1832
1.25602
1.33308
1.41459
0.286729
0.291122
0.29905
0.31094
0.326832
0.346585
0.370125
0.397444
0.428564
0.46352
0.502337
0.545017
0.59151
0.641708
0.695445
0.752537
0.812842
0.876318
0.943074
1.01347
1.08809
1.16697
1.25035
0.108618
0.112893
0.120565
0.13218
0.147769
0.167237
0.19053
0.21764
0.248583
0.283394
0.322103
0.364719
0.411207
0.461472
0.515372
0.572743
0.633466
0.697507
0.764972
0.836191
0.911689
0.991447
1.07568
-0.0729306
-0.0685794
-0.0610721
-0.0496766
-0.0343786
-0.0152225
0.00776137
0.034569
0.0652183
0.0997442
0.138181
0.180541
0.226792
0.276846
0.330568
0.387812
0.448465
0.512493
0.579985
0.651244
0.726768
0.806528
0.890702
-0.257848
-0.253336
-0.245933
-0.234732
-0.219727
-0.200917
-0.178308
-0.151897
-0.121663
-0.0875685
-0.0495772
-0.00767865
0.0380911
0.0876415
0.140841
0.197547
0.25765
0.321104
0.387985
0.458577
0.533366
0.612339
0.69565
-0.446068
-0.441404
-0.434068
-0.423056
-0.408359
-0.389938
-0.367775
-0.341858
-0.312161
-0.278646
-0.241277
-0.200049
-0.155006
-0.106246
-0.0539036
0.00187398
0.0609703
0.123328
0.18901
0.258298
0.33168
0.409169
0.490896
-0.637537
-0.63278
-0.625495
-0.614686
-0.600324
-0.582338
-0.560693
-0.535368
-0.506331
-0.473543
-0.436972
-0.396622
-0.352545
-0.304848
-0.253676
-0.199186
-0.141511
-0.0807188
-0.0167514
0.0506791
0.122076
0.197485
0.277014
-0.832206
-0.827432
-0.820208
-0.809626
-0.795631
-0.778131
-0.757077
-0.73244
-0.704183
-0.672266
-0.636667
-0.597397
-0.554518
-0.508145
-0.458434
-0.405559
-0.349671
-0.290852
-0.229038
-0.163928
-0.0949981
-0.0221682
0.0546498
-1.03002
-1.02531
-1.01817
-1.00785
-0.994263
-0.977298
-0.956904
-0.933045
-0.905681
-0.874775
-0.840313
-0.802317
-0.760857
-0.716053
-0.668074
-0.617111
-0.563337
-0.506841
-0.44755
-0.385144
-0.319079
-0.249242
-0.175563
-1.23092
-1.22635
-1.21934
-1.20932
-1.19617
-1.17979
-1.16012
-1.13712
-1.11075
-1.08098
-1.04781
-1.01127
-0.971432
-0.928422
-0.88242
-0.833638
-0.782265
-0.728393
-0.671935
-0.612549
-0.549677
-0.483175
-0.412996
-1.43482
-1.43048
-1.42363
-1.41395
-1.40127
-1.38552
-1.36663
-1.34457
-1.31929
-1.29078
-1.25903
-1.2241
-1.18606
-1.14504
-1.10123
-1.05487
-1.00614
-0.955143
-0.901772
-0.845665
-0.786251
-0.723365
-0.65698
-1.64164
-1.63758
-1.63094
-1.62163
-1.60947
-1.59439
-1.57633
-1.55527
-1.53116
-1.504
-1.47381
-1.44061
-1.40452
-1.36565
-1.32422
-1.28046
-1.23459
-1.18666
-1.13658
-1.08395
-1.0282
-0.969149
-0.906796
-1.85128
-1.84753
-1.84115
-1.83225
-1.82064
-1.80627
-1.78909
-1.76909
-1.74622
-1.7205
-1.69193
-1.66059
-1.62655
-1.58997
-1.55106
-1.51007
-1.46719
-1.42249
-1.37584
-1.32684
-1.2749
-1.21984
-1.1617
-2.06363
-2.0602
-2.05411
-2.04566
-2.03464
-2.02101
-2.00476
-1.98586
-1.96429
-1.94006
-1.91321
-1.88379
-1.8519
-1.81771
-1.78143
-1.7433
-1.70353
-1.66216
-1.61903
-1.57374
-1.52571
-1.47476
-1.42096
-2.27852
-2.27542
-2.26966
-2.2617
-2.25129
-2.23845
-2.22316
-2.20541
-2.18519
-2.1625
-2.13741
-2.10998
-2.08031
-2.04857
-2.01499
-1.9798
-1.94319
-1.9052
-1.86564
-1.82412
-1.78005
-1.73326
-1.68391
-2.49581
-2.49303
-2.48764
-2.4802
-2.47045
-2.45842
-2.44412
-2.42755
-2.4087
-2.38761
-2.36432
-2.33891
-2.3115
-2.28226
-2.25141
-2.21919
-2.18577
-2.15117
-2.11521
-2.07746
-2.03736
-1.99477
-1.94989
-2.71533
-2.71286
-2.70787
-2.701
-2.69192
-2.68073
-2.66745
-2.65209
-2.63464
-2.61516
-2.59369
-2.57033
-2.5452
-2.51847
-2.49036
-2.46112
-2.43089
-2.39968
-2.36729
-2.3333
-2.29715
-2.25874
-2.2183
-2.9369
-2.93478
-2.93019
-2.92392
-2.91554
-2.9052
-2.89297
-2.87883
-2.86281
-2.84494
-2.82531
-2.80399
-2.78113
-2.7569
-2.73152
-2.70524
-2.67818
-2.65033
-2.62148
-2.59119
-2.55895
-2.52464
-2.48857
-3.16033
-3.15864
-3.15442
-3.14879
-3.14111
-3.13166
-3.12048
-3.10758
-3.09298
-3.07674
-3.05892
-3.03964
-3.01902
-2.99727
-2.9746
-2.95123
-2.92729
-2.90275
-2.87737
-2.85072
-2.8223
-2.792
-2.76015
-3.38545
-3.38426
-3.38039
-3.37543
-3.36847
-3.35991
-3.3498
-3.33815
-3.32497
-3.31034
-3.29432
-3.27704
-3.25865
-3.23933
-3.21931
-3.19879
-3.17789
-3.15657
-3.13458
-3.11149
-3.08681
-3.06041
-3.03258
-3.61207
-3.61149
-3.60789
-3.60368
-3.59744
-3.58979
-3.58076
-3.57035
-3.55859
-3.54555
-3.53131
-3.516
-3.49978
-3.48283
-3.46537
-3.4476
-3.42965
-3.41144
-3.39274
-3.37312
-3.35209
-3.32947
-3.30546
-3.84004
-3.84018
-3.83669
-3.83337
-3.82785
-3.82113
-3.81319
-3.80402
-3.79367
-3.78219
-3.7697
-3.75632
-3.74219
-3.72752
-3.71252
-3.6974
-3.68226
-3.66704
-3.65151
-3.63524
-3.61774
-3.59877
-3.57841
-4.06899
-4.07027
-4.06642
-4.06439
-4.05954
-4.05376
-4.04692
-4.03898
-4.03001
-4.02008
-4.0093
-3.99777
-3.98567
-3.97318
-3.96052
-3.94791
-3.93543
-3.92304
-3.91051
-3.89743
-3.88331
-3.86787
-3.85103
-4.29828
-4.30172
-4.29696
-4.29673
-4.29236
-4.28752
-4.28176
-4.27504
-4.26743
-4.259
-4.24987
-4.24014
-4.22997
-4.21956
-4.20912
-4.19886
-4.18887
-4.1791
-4.16936
-4.15925
-4.14832
-4.13625
-4.12284
-4.52776
-4.53479
-4.52918
-4.52984
-4.52613
-4.52232
-4.51763
-4.5121
-4.50581
-4.49884
-4.4913
-4.4833
-4.47499
-4.46655
-4.4582
-4.45012
-4.4424
-4.43501
-4.4278
-4.4204
-4.41241
-4.4035
-4.39338
-4.75752
-4.76996
-4.76245
-4.76444
-4.76117
-4.75832
-4.75466
-4.75026
-4.74525
-4.7397
-4.73371
-4.72738
-4.72085
-4.71429
-4.70789
-4.7018
-4.69612
-4.69086
-4.68588
-4.68089
-4.67553
-4.66948
-4.66243
-4.98698
-5.00674
-4.99624
-4.9995
-4.99735
-4.99515
-4.9924
-4.98909
-4.98531
-4.98114
-4.97666
-4.97195
-4.96713
-4.96234
-4.95774
-4.95346
-4.94961
-4.9462
-4.94314
-4.94021
-4.93711
-4.9336
-4.92947
-5.21245
-5.2461
-5.22953
-5.23337
-5.23218
-5.23058
-5.22863
-5.22633
-5.22372
-5.22087
-5.21783
-5.21467
-5.21147
-5.20832
-5.20536
-5.20269
-5.20041
-5.19855
-5.19704
-5.19577
-5.19455
-5.19326
-5.19198
-5.42815
-5.4982
-5.46823
-5.46803
-5.46682
-5.46552
-5.46421
-5.46283
-5.46134
-5.45978
-5.45816
-5.45651
-5.45486
-5.45329
-5.45186
-5.45065
-5.44972
-5.44911
-5.44882
-5.44885
-5.44918
-5.44986
-5.4508
-5.63412
-5.77299
-5.72749
-5.71997
-5.71772
-5.71667
-5.71609
-5.71576
-5.71557
-5.7155
-5.71551
-5.71561
-5.71578
-5.71603
-5.71637
-5.71682
-5.71739
-5.71813
-5.71907
-5.72034
-5.72213
-5.72477
-5.72855
394.642
409.421
403.108
366.413
367.38
372.87
361.838
341.688
264.963
269.662
269.868
269.792
142.094
151.222
159.337
166.715
41.3994
48.9387
57.3928
66.5481
8.39005
11.7858
15.2962
19.2495
1.79318
1.79476
1.82355
1.95922
2.30421
2.32243
2.32053
2.29234
1.99276
2.02546
2.07881
2.15192
1.89728
1.93733
1.98055
2.02726
1.77051
1.81102
1.85523
1.90081
1.62992
1.67232
1.71848
1.76555
1.47812
1.52173
1.56889
1.61681
1.31507
1.35925
1.40686
1.45522
1.14083
1.18515
1.23288
1.28142
0.955691
0.999851
1.04742
1.09588
0.759921
0.803618
0.850783
0.898928
0.553928
0.596863
0.643352
0.690929
0.338356
0.380248
0.425765
0.472478
0.113932
0.154531
0.198792
0.244329
-0.118644
-0.0795444
-0.0367891
0.00728333
-0.358697
-0.321269
-0.280228
-0.237869
-0.605522
-0.56992
-0.530779
-0.490357
-0.858369
-0.824738
-0.787684
-0.749422
-1.11646
-1.08495
-1.05019
-1.01433
-1.37905
-1.34981
-1.31755
-1.28434
-1.64543
-1.61859
-1.58903
-1.55872
-1.91492
-1.89058
-1.86389
-1.83666
-2.18685
-2.16507
-2.14133
-2.1173
-2.46054
-2.4413
-2.42053
-2.39971
-2.73538
-2.71856
-2.70067
-2.68298
-3.01083
-2.99622
-2.98101
-2.96625
-3.28647
-3.27382
-3.26097
-3.24883
-3.56195
-3.551
-3.54016
-3.53025
-3.83696
-3.8275
-3.81832
-3.81026
-4.11112
-4.10302
-4.09527
-4.08873
-4.38402
-4.37725
-4.3708
-4.3656
-4.65535
-4.64995
-4.6448
-4.64093
-4.92494
-4.92106
-4.91735
-4.91477
-5.19052
-5.18855
-5.18638
-5.18483
-5.45052
-5.44993
-5.44945
-5.44961
-5.7313
-5.73284
-5.73411
-5.73529
382.083
383.414
382.791
382.04
381.173
380.428
380.202
380.277
380.322
380.221
380.133
380.043
380.285
381.905
382.684
383.037
383.53
384.009
384.572
330.178
356.255
376.742
380.776
377.98
367.281
350.213
346.26
350.208
355.443
357.095
361.825
370.465
379.051
382.474
383.558
383.452
383.497
384.478
270.271
281.057
306.551
322.84
313.437
289.61
272.9
274.312
282.752
293.614
305.365
322.161
342.465
353.81
367.411
381.755
384.097
383.112
384.202
176.985
188.733
202.381
210.454
206.608
197.549
192.349
195.683
205.215
219.966
240.181
267.561
299.91
332.951
360.549
375.52
381.926
384.036
385.228
81.5647
92.7078
101.033
107.463
109.579
108.811
108.772
112.309
121.268
137.605
164.233
204.174
249.414
294.364
337.228
373.048
389.974
389.355
398.021
24.4547
26.3722
27.735
30.3838
33.4114
36.4632
39.2284
41.0312
43.7424
51.7686
70.8401
112.176
173.137
246.02
310.397
358.135
396.115
424.352
445.859
2.20241
2.35064
2.54806
3.20544
3.97339
4.69881
5.13571
5.2319
5.5542
6.64915
9.69293
18.9563
51.5117
143.651
253.642
336.901
396.33
467.053
509.017
2.2071
2.14527
2.15719
2.27129
2.54208
2.90703
3.35245
3.79613
4.17507
4.5609
5.12257
6.20364
8.59094
35.8355
142.54
283.41
381.476
470.596
515.91
2.28373
2.43432
2.5865
2.75535
2.94082
3.15667
3.4199
3.72708
4.061
4.42655
4.86801
5.48496
5.77189
9.31033
41.9768
192.839
350.889
451.583
483.739
2.11609
2.2405
2.38101
2.55468
2.76666
3.01578
3.30122
3.62036
3.96811
4.34384
4.75509
5.25556
5.40795
5.47216
11.3562
101.198
317.904
437.506
463.809
1.98031
2.10429
2.25102
2.42991
2.64461
2.89461
3.17735
3.4876
3.81966
4.16907
4.52768
4.90612
5.18863
4.59924
6.48623
30.2642
277.831
434.51
454.814
1.84656
1.97555
2.12786
2.30869
2.51932
2.75957
3.02732
3.31771
3.62387
3.93612
4.23631
4.51193
4.75351
4.54466
5.13861
8.17559
224.741
433.007
455.789
1.69912
1.83003
1.98325
2.16214
2.36656
2.59615
2.84884
3.11992
3.40175
3.68263
3.9433
4.16398
4.3608
4.42776
4.21897
2.21868
146.171
446.756
467.775
1.53805
1.66887
1.82087
1.99593
2.19328
2.41232
2.65105
2.90491
3.16633
3.42428
3.66353
3.86769
4.04906
4.20992
3.93537
3.17481
84.1503
474.927
489.718
1.36436
1.49438
1.64394
1.81431
2.00433
2.21333
2.43959
2.67909
2.92501
3.16786
3.39679
3.603
3.80035
4.03765
3.95104
5.10892
35.8325
499.697
527.626
1.17849
1.30697
1.45345
1.61878
1.80162
2.00154
2.21735
2.44583
2.68112
2.91475
3.13764
3.34434
3.55276
3.89148
3.91477
5.11311
24.909
509.654
584.018
0.980757
1.10706
1.25002
1.41014
1.58622
1.77825
1.9858
2.20658
2.43532
2.66307
2.87722
3.05913
3.17428
3.40945
3.88719
5.14665
70.4942
492.737
612.641
0.771562
0.89511
1.03413
1.18902
1.35883
1.54416
1.7456
1.96186
2.1881
2.4137
2.61931
2.7632
2.70201
2.83546
3.35704
8.67776
204.781
490.533
603.699
0.55145
0.671674
0.806384
0.956
1.12001
1.29981
1.49719
1.7122
1.94074
2.17091
2.37617
2.48895
2.2205
2.22074
1.40014
25.8604
218.942
448.419
593.602
0.321146
0.43748
0.567494
0.711759
0.870394
1.0458
1.24121
1.45858
1.69618
1.94418
2.17596
2.30879
2.09018
1.77793
2.78567
21.9772
137.301
328.432
473.417
0.0814735
0.193382
0.318317
0.457132
0.61078
0.782856
0.978355
1.20194
1.45685
1.74187
2.0451
2.27548
2.26388
1.90464
2.13008
3.75608
12.0055
78.5256
215.78
-0.166717
-0.0597245
0.0597559
0.192983
0.341905
0.511438
0.708623
0.941561
1.21946
1.55668
1.97378
2.40571
2.65743
2.52244
2.41748
3.72065
0.399771
-21.8856
13.647
-0.422612
-0.320994
-0.207379
-0.0800206
0.0640592
0.231087
0.430612
0.673385
0.971493
1.35501
1.895
2.58042
3.1048
3.18501
2.89849
3.20888
-0.14779
-13.8177
4.84202
-0.685452
-0.589696
-0.482475
-0.36158
-0.223195
-0.0601406
0.140446
0.388288
0.691156
1.08085
1.69721
2.60078
3.33204
3.48025
3.12124
2.84349
0.00606246
-13.9221
24.4
-0.954534
-0.865206
-0.765112
-0.651725
-0.520834
-0.36527
-0.170858
0.0679832
0.340798
0.639739
1.2058
1.98946
2.55155
2.97372
3.29531
3.58887
2.72851
-11.0148
21.8193
-1.22916
-1.1469
-1.05487
-0.950466
-0.829611
-0.686145
-0.508919
-0.297519
-0.0920238
0.0402451
0.634428
0.764648
-1.79179
2.90085
6.95117
7.66499
8.93012
1.18546
12.5
-1.50855
-1.43401
-1.35107
-1.25739
-1.14964
-1.02369
-0.87338
-0.700309
-0.578969
-0.609685
-0.115548
0.787008
2.66097
6.00038
11.5271
12.713
13.7459
8.78057
10.5992
-1.79181
-1.72551
-1.65251
-1.57108
-1.47906
-1.37526
-1.26109
-1.12917
-1.07779
-1.21839
-1.39259
-0.820192
2.9506
6.85283
13.1476
14.7704
14.7723
11.4427
10.69
-2.07795
-2.02015
-1.95753
-1.88914
-1.8142
-1.73476
-1.65632
-1.56786
-1.55176
-1.74554
-2.24775
-2.30022
0.99475
5.28877
11.3806
13.54
13.1636
11.0951
10.319
-2.3659
-2.3166
-2.26436
-2.2091
-2.15154
-2.096
-2.04569
-2.00069
-2.00406
-2.18709
-2.62806
-2.8082
-1.2208
2.60266
8.19726
10.7364
10.6188
9.68994
9.43725
-2.65456
-2.61347
-2.57117
-2.52831
-2.48645
-2.45041
-2.42276
-2.41569
-2.43352
-2.5425
-2.76914
-2.72799
-2.58148
-0.197082
4.85414
7.74214
8.42009
8.12466
8.06701
-2.94288
-2.90946
-2.87635
-2.84465
-2.81604
-2.7945
-2.78389
-2.80112
-2.82442
-2.86964
-2.94105
-2.83439
-3.32058
-3.5997
0.870733
5.08322
6.62403
6.2656
6.22381
-3.22998
-3.2035
-3.17862
-3.15675
-3.13937
-3.12939
-3.13165
-3.15497
-3.20264
-3.22916
-3.2323
-3.13022
-3.96188
-8.20267
-5.29476
2.41723
5.03652
3.91183
3.93387
-3.51529
-3.49492
-3.47722
-3.46383
-3.45622
-3.45652
-3.46862
-3.49786
-3.56459
-3.60629
-3.58375
-3.76028
-4.81423
-12.5213
-12.8551
-1.77117
2.13496
0.744681
1.27441
-3.79856
-3.78346
-3.77186
-3.76559
-3.76625
-3.77592
-3.79878
-3.84105
-3.91057
-3.98575
-3.98975
-4.38937
-4.62121
-11.5638
-15.6406
-8.1318
-4.32826
-3.76367
-1.67605
-4.07975
-4.0693
-4.06278
-4.06221
-4.0694
-4.08665
-4.11871
-4.17287
-4.25603
-4.36412
-4.4459
-4.73144
-5.01471
-3.24594
-8.20311
-13.3208
-11.0334
-7.87983
-4.17819
-4.35906
-4.35287
-4.35071
-4.35461
-4.36659
-4.38915
-4.42754
-4.48988
-4.58572
-4.71865
-4.86405
-5.04901
-5.39673
-5.84106
-6.52756
-12.6629
-15.2584
-9.88458
-5.48139
-4.63682
-4.63472
-4.63649
-4.64399
-4.65925
-4.68497
-4.72645
-4.79281
-4.89613
-5.05013
-5.26233
-5.53525
-5.89621
-6.40439
-7.28318
-10.3247
-15.0766
-10.5828
-6.11623
-4.91262
-4.91407
-4.91926
-4.92969
-4.94724
-4.97443
-5.01626
-5.08244
-5.18665
-5.35285
-5.60677
-5.96713
-6.42357
-6.94857
-7.30441
-8.30919
-10.7053
-10.1706
-6.60989
-5.18378
-5.18765
-5.19533
-5.20774
-5.22655
-5.25398
-5.29399
-5.35512
-5.45336
-5.6156
-5.8828
-6.28259
-6.76474
-7.25727
-7.51102
-7.76691
-8.9521
-9.01216
-6.54657
-5.45142
-5.457
-5.4661
-5.47949
-5.49843
-5.52467
-5.56073
-5.61175
-5.68843
-5.8118
-6.01999
-6.36779
-6.84461
-7.27588
-7.5602
-7.78318
-8.12081
-7.41158
-6.06964
-5.73759
-5.74294
-5.75182
-5.76451
-5.78165
-5.80424
-5.83343
-5.86952
-5.91084
-5.95263
-5.98968
-6.03891
-6.17968
-6.41303
-6.55365
-6.66069
-6.83503
-6.77545
-6.70238
)
;

boundaryField
{
    leftWall
    {
        type            calculated;
        value           nonuniform List<scalar> 
50
(
710.836
651.506
591.349
531.16
471.186
411.363
351.667
292.225
199.71
80.8495
13.8391
1.65064
1.70171
1.54949
1.42415
1.27522
1.12134
0.962557
0.799438
0.632291
0.461325
0.286729
0.108618
-0.0729306
-0.257848
-0.446068
-0.637537
-0.832206
-1.03002
-1.23092
-1.43482
-1.64164
-1.85128
-2.06363
-2.27852
-2.49581
-2.71533
-2.9369
-3.16033
-3.38545
-3.61207
-3.84004
-4.06899
-4.29828
-4.52776
-4.75752
-4.98698
-5.21245
-5.42815
-5.63412
)
;
    }
    rightWall
    {
        type            calculated;
        value           nonuniform List<scalar> 
50
(
385.165
385.084
384.998
384.91
384.825
384.743
384.668
384.611
384.572
384.478
384.202
385.228
398.021
445.859
509.017
515.91
483.739
463.809
454.814
455.789
467.775
489.718
527.626
584.018
612.641
603.699
593.602
473.417
215.78
13.647
4.84202
24.4
21.8193
12.5
10.5992
10.69
10.319
9.43725
8.06701
6.22381
3.93387
1.27441
-1.67605
-4.17819
-5.48139
-6.11623
-6.60989
-6.54657
-6.06964
-6.70238
)
;
    }
    lowerWall
    {
        type            calculated;
        value           nonuniform List<scalar> 
62
(
740.265
739.996
747.682
758.591
769.543
779.24
787.96
796.248
804.652
813.601
823.424
834.402
846.829
861.089
877.835
897.736
921.564
949.404
980.079
1009.05
1029.59
1025.99
1052.82
1025.53
964.645
909.38
860.509
814.779
765.376
707.143
633.265
457.194
471.875
465.691
408.605
383.671
383.643
383.599
383.536
383.45
383.343
383.209
383.09
383.701
383.596
383.347
382.944
382.447
381.954
381.56
381.299
381.155
381.115
381.21
381.498
382.028
382.746
383.513
384.221
384.813
385.167
385.194
)
;
    }
    atmosphere
    {
        type            calculated;
        value           nonuniform List<scalar> 
46
(
-5.7886
-5.87295
-5.86126
-5.85872
-5.8573
-5.85677
-5.85676
-5.85711
-5.85773
-5.85857
-5.85959
-5.86077
-5.86207
-5.86345
-5.8649
-5.86639
-5.86788
-5.86941
-5.87101
-5.87285
-5.87522
-5.87873
-5.88459
-5.89183
-5.89577
-5.89813
-5.89885
-5.89872
-5.90335
-5.91122
-5.92155
-5.93436
-5.95005
-5.96903
-5.98993
-6.00722
-6.00904
-5.97227
-5.86749
-5.73366
-5.74026
-5.784
-5.86974
-5.95827
-6.22532
-6.40673
)
;
    }
    defaultFaces
    {
        type            empty;
    }
}


// ************************************************************************* //
