/*--------------------------------*- C++ -*----------------------------------*\
| =========                 |                                                 |
| \\      /  F ield         | OpenFOAM: The Open Source CFD Toolbox           |
|  \\    /   O peration     | Version:  v2012                                 |
|   \\  /    A nd           | Website:  www.openfoam.com                      |
|    \\/     M anipulation  |                                                 |
\*---------------------------------------------------------------------------*/
FoamFile
{
    version     2.0;
    format      ascii;
    class       volScalarField;
    location    "0.45";
    object      p_rgh;
}
// * * * * * * * * * * * * * * * * * * * * * * * * * * * * * * * * * * * * * //

dimensions      [1 -1 -2 0 0 0 0];


internalField   nonuniform List<scalar> 
2268
(
740.265
739.996
747.682
758.591
769.543
779.24
787.96
796.248
804.652
813.601
823.424
834.402
846.829
861.089
877.835
897.736
921.564
949.404
980.079
1009.05
1029.59
1025.99
1052.82
739.794
738.131
744.397
754.043
764.018
773.377
782.122
790.645
799.389
808.737
819.016
830.523
843.576
858.575
876.046
896.899
921.915
951.582
984.916
1016.35
1038.77
1022.34
1052.56
738.496
737.07
742.355
750.197
758.905
767.547
776.007
784.537
793.473
803.142
813.856
825.92
839.666
855.51
873.98
895.861
921.933
952.511
986.583
1018.57
1042.03
1030.97
1055.91
737.165
736.486
740.991
747.466
754.956
762.749
770.725
779.056
787.999
797.838
808.862
821.371
835.694
852.228
871.469
894.054
920.628
951.265
984.87
1016.41
1040.8
1041.16
1066.1
736.05
736.367
740.031
745.366
751.775
758.726
766.144
774.168
783.004
792.901
804.128
816.973
831.737
848.781
868.542
891.533
918.213
948.463
981.177
1012.07
1037.14
1045.48
1079.1
735.086
736.217
739.043
743.368
748.824
754.978
761.828
769.504
778.18
788.076
799.444
812.553
827.671
845.095
865.206
888.402
914.981
944.672
976.375
1006.48
1031.62
1047.36
1088.49
734.249
735.89
737.821
741.186
745.78
751.181
757.471
764.789
773.285
783.157
794.641
807.984
823.407
841.134
861.482
884.756
911.126
940.193
970.837
999.869
1024.09
1044.99
1089.01
733.666
735.529
736.336
738.555
742.257
746.933
752.684
759.66
767.993
777.866
789.497
803.11
818.859
836.868
857.39
880.664
906.764
935.19
964.746
992.35
1014.37
1034.19
1073.89
383.701
383.596
383.347
382.944
382.447
381.954
381.56
381.299
381.155
381.115
381.21
381.498
382.028
382.746
383.513
384.221
384.813
385.167
385.194
383.731
383.636
383.385
382.96
382.435
381.92
381.521
381.268
381.13
381.086
381.161
381.424
381.928
382.641
383.414
384.129
384.731
385.113
385.172
383.747
383.66
383.398
382.945
382.392
381.864
381.471
381.233
381.104
381.052
381.1
381.321
381.794
382.51
383.302
384.03
384.645
385.057
385.145
383.742
383.664
383.387
382.903
382.323
381.782
381.396
381.178
381.061
381.001
381.018
381.194
381.639
382.378
383.205
383.951
384.576
385.01
385.116
383.715
383.662
383.368
382.843
382.228
381.67
381.297
381.107
381.007
380.938
380.921
381.044
381.457
382.233
383.11
383.881
384.512
384.962
385.089
383.667
383.676
383.358
382.774
382.117
381.544
381.19
381.035
380.955
380.873
380.818
380.877
381.237
382.055
383.009
383.822
384.452
384.912
385.067
383.592
383.73
383.374
382.712
382.016
381.435
381.102
380.982
380.918
380.82
380.723
380.704
380.971
381.831
382.906
383.764
384.388
384.849
385.051
383.532
383.88
383.444
382.68
381.949
381.357
381.038
380.951
380.904
380.792
380.658
380.558
380.741
381.74
382.892
383.67
384.277
384.749
385.054
733.176
733.994
732.369
732.685
735.071
738.808
743.888
750.436
758.583
768.516
780.46
794.616
811.005
829.515
850.306
873.552
899.207
926.704
954.733
980.025
997.887
1004.17
995.206
698.238
648.115
609.428
615.24
630.219
648.05
667.196
687.446
708.595
730.484
753.005
775.833
797.687
817.432
838.534
861.9
887.408
914.444
942.705
968.809
988.631
1000.71
1016.44
171.346
116.146
83.7964
91.3724
105.574
123.526
145.854
173.529
207.479
249.299
301.714
369.145
456.603
558.261
661.816
765.753
865.516
903.469
933.818
962.646
986.211
1007.38
1033
2.5597
2.77962
2.86614
2.85189
2.84631
2.85277
2.86197
2.8756
2.89861
2.93275
2.97794
3.0334
3.12477
13.2667
54.9653
125.296
242.21
460.325
774.806
972.31
990.708
1010.51
1035.02
2.73595
2.74112
2.78323
2.81314
2.84173
2.8704
2.89837
2.92633
2.95538
2.98617
3.01901
3.05454
3.0945
3.13943
3.17142
3.19783
3.17173
7.46633
62.33
219.659
452.179
693.924
975.734
2.70893
2.72861
2.75843
2.78495
2.8082
2.83111
2.85547
2.88201
2.91144
2.9443
2.98093
3.0215
3.06548
3.11403
3.16435
3.21652
3.26929
3.29814
3.24031
3.12392
3.35218
30.4566
149.489
2.70878
2.71876
2.73774
2.7584
2.77898
2.80071
2.8246
2.85115
2.88089
2.91424
2.95145
2.99253
3.03707
3.08382
3.1309
3.1774
3.22589
3.2898
3.36588
3.4272
3.45937
3.33712
3.12171
2.68505
2.69564
2.71046
2.72833
2.74784
2.76938
2.79348
2.82048
2.85073
2.88447
2.92184
2.96277
3.00692
3.0533
3.10093
3.14917
3.1983
3.24868
3.29832
3.34352
3.41267
3.54979
3.65711
2.65636
2.66612
2.67842
2.6943
2.71282
2.734
2.75811
2.78536
2.81598
2.8501
2.88779
2.92897
2.97337
3.02042
3.0695
3.11999
3.1713
3.22268
3.27241
3.32114
3.37811
3.44862
3.50056
2.62277
2.63118
2.64194
2.65637
2.67405
2.69486
2.71889
2.74627
2.77714
2.81158
2.84963
2.89122
2.93613
2.98401
3.03438
3.08676
3.14068
3.19578
3.25161
3.30847
3.36868
3.43318
3.49957
2.58485
2.59172
2.6014
2.61485
2.63192
2.65244
2.6764
2.70386
2.7349
2.7696
2.80797
2.84996
2.89541
2.94407
2.99559
3.04961
3.10579
3.16394
3.224
3.28635
3.35232
3.42266
3.49679
2.5429
2.54852
2.5574
2.57016
2.58677
2.60703
2.6309
2.65838
2.68954
2.72442
2.76304
2.80538
2.85131
2.90065
2.95316
3.00853
3.06655
3.12708
3.19017
3.25623
3.32625
3.40059
3.47912
2.49713
2.50194
2.51025
2.52251
2.53873
2.55875
2.58248
2.60992
2.64111
2.67608
2.71486
2.75744
2.80373
2.85361
2.90687
2.96329
3.02269
3.085
3.15031
3.219
3.29182
3.36888
3.45039
2.44773
2.45212
2.46005
2.47194
2.48783
2.50758
2.53112
2.55844
2.58956
2.62452
2.66333
2.70601
2.75251
2.8027
2.85644
2.91353
2.97384
3.03731
3.10407
3.17447
3.24909
3.32797
3.41134
2.39481
2.39908
2.40676
2.41837
2.43396
2.45343
2.47672
2.50383
2.53477
2.56958
2.60829
2.65091
2.6974
2.74766
2.80156
2.85893
2.91966
2.9837
3.05116
3.12238
3.19788
3.27764
3.36187
2.33845
2.34281
2.35031
2.36171
2.37701
2.39616
2.41915
2.44595
2.4766
2.51113
2.54957
2.59193
2.63818
2.68823
2.74195
2.7992
2.85985
2.92388
2.99137
3.06263
3.13815
3.21791
3.30209
2.27873
2.28324
2.29065
2.30185
2.31685
2.33566
2.35827
2.38468
2.41492
2.44901
2.487
2.5289
2.57467
2.62422
2.67742
2.73413
2.79423
2.85768
2.92456
2.99516
3.06995
3.14892
3.23223
2.21571
2.22037
2.22771
2.23872
2.25341
2.27184
2.294
2.31992
2.34961
2.38313
2.4205
2.46173
2.50677
2.55553
2.60787
2.66365
2.72274
2.7851
2.85078
2.92007
2.99345
3.07094
3.15267
2.14943
2.15419
2.16147
2.17228
2.18664
2.20463
2.22628
2.2516
2.28064
2.31343
2.35
2.39035
2.43442
2.48212
2.53329
2.58778
2.64546
2.70625
2.77022
2.83765
2.90904
2.98445
3.06398
2.07996
2.08473
2.09196
2.10254
2.11653
2.13403
2.15509
2.17972
2.20798
2.2399
2.2755
2.31477
2.35764
2.40402
2.45373
2.5066
2.56249
2.62131
2.68312
2.74823
2.81716
2.88999
2.96681
2.00734
2.01205
2.01918
2.0295
2.0431
2.06006
2.08045
2.10431
2.13168
2.16258
2.19704
2.23504
2.2765
2.3213
2.36928
2.42025
2.47402
2.53052
2.58981
2.65221
2.71828
2.78812
2.86179
1.93164
1.9362
1.94321
1.95323
1.96638
1.98276
2.00243
2.02543
2.0518
2.08157
2.11474
2.15128
2.19112
2.23413
2.28013
2.32891
2.38029
2.43416
2.49062
2.55
2.61288
2.67938
2.74956
1.85293
1.85727
1.86412
1.8738
1.88647
1.90223
1.92112
1.94318
1.96846
1.99697
2.02871
2.06364
2.10169
2.14271
2.18652
2.23288
2.28161
2.3326
2.38597
2.44208
2.5015
2.56438
2.63077
1.7713
1.77536
1.782
1.79131
1.80347
1.81855
1.83661
1.85767
1.88178
1.90894
1.93914
1.97233
2.00843
2.04729
2.08872
2.13248
2.17836
2.22628
2.27636
2.32899
2.38474
2.44379
2.50615
1.68685
1.6906
1.69698
1.70588
1.71749
1.73187
1.74904
1.76905
1.79191
1.81764
1.8462
1.87755
1.91159
1.94817
1.98708
2.02807
2.07095
2.11564
2.1623
2.2113
2.26324
2.3183
2.37644
1.5997
1.60313
1.60922
1.61767
1.62869
1.64232
1.65857
1.67747
1.69904
1.72327
1.75012
1.77954
1.81143
1.84562
1.8819
1.92003
1.9598
2.00117
2.0443
2.08959
2.13762
2.18857
2.24237
1.51
1.51311
1.51886
1.52683
1.53723
1.55007
1.56536
1.58311
1.60334
1.62602
1.65111
1.67855
1.70821
1.73995
1.77354
1.80872
1.84533
1.88333
1.92288
1.96441
2.00848
2.05526
2.10462
1.41791
1.42069
1.42608
1.43352
1.44327
1.4553
1.4696
1.48617
1.50502
1.52611
1.5494
1.57481
1.60222
1.63146
1.66231
1.69453
1.72795
1.76255
1.79851
1.83626
1.87636
1.91895
1.96383
1.32358
1.32605
1.33105
1.33791
1.34699
1.35819
1.37146
1.38683
1.40427
1.42375
1.44522
1.46858
1.49372
1.52045
1.54855
1.5778
1.60803
1.63923
1.67162
1.70562
1.74176
1.78018
1.82061
1.22721
1.22932
1.23392
1.24018
1.24857
1.25891
1.27114
1.28528
1.3013
1.31917
1.3388
1.36012
1.38298
1.40721
1.43258
1.45887
1.48593
1.51377
1.54263
1.57292
1.60516
1.63947
1.67554
1.12897
1.13067
1.13488
1.14051
1.14819
1.15765
1.16883
1.18172
1.19632
1.21257
1.23038
1.24967
1.27028
1.29203
1.3147
1.33807
1.36201
1.38655
1.41193
1.43858
1.467
1.4973
1.52916
1.02905
1.03024
1.03411
1.03906
1.04602
1.05459
1.0647
1.07635
1.08952
1.10416
1.12017
1.13745
1.15585
1.17517
1.19519
1.21571
1.23661
1.25793
1.27992
1.30301
1.32768
1.35408
1.38192
0.927617
0.928197
0.931799
0.936012
0.942249
0.949902
0.95893
0.969339
0.981099
0.994144
1.00838
1.02369
1.03991
1.05687
1.07432
1.09209
1.11005
1.12825
1.14695
1.16657
1.1876
1.21022
1.23423
0.824842
0.824707
0.828193
0.831512
0.837034
0.843756
0.851694
0.860862
0.87122
0.882694
0.895184
0.908567
0.922692
0.937364
0.952362
0.967486
0.98263
0.997844
1.01338
1.02965
1.04715
1.06612
1.08648
0.721091
0.719815
0.723662
0.725692
0.730541
0.736318
0.743162
0.751096
0.76007
0.769999
0.780785
0.792307
0.804412
0.816903
0.829557
0.842175
0.854652
0.867036
0.879567
0.892653
0.906773
0.922214
0.93905
0.617001
0.613554
0.618316
0.61855
0.62292
0.627758
0.633515
0.640234
0.647848
0.656272
0.665407
0.675136
0.685305
0.695717
0.706152
0.716417
0.72641
0.736171
0.745915
0.756024
0.766952
0.779023
0.792434
0.512714
0.505684
0.511292
0.510625
0.51434
0.518152
0.522837
0.528372
0.534665
0.541627
0.549166
0.557168
0.56548
0.573916
0.582266
0.590352
0.598074
0.605456
0.612674
0.620068
0.628056
0.636971
0.647087
0.408142
0.395705
0.403217
0.401222
0.404492
0.407344
0.411007
0.415404
0.420418
0.425963
0.431953
0.438282
0.444811
0.451371
0.457777
0.463867
0.469541
0.474802
0.479786
0.484775
0.490135
0.496188
0.503238
0.303878
0.284123
0.294615
0.291356
0.293509
0.295705
0.29846
0.301769
0.305549
0.309719
0.314203
0.318911
0.32373
0.328519
0.333123
0.337397
0.341246
0.344655
0.347718
0.350653
0.353749
0.357263
0.361392
0.203608
0.169957
0.186524
0.182687
0.18387
0.185474
0.18742
0.189723
0.192332
0.195184
0.198221
0.201383
0.204588
0.207733
0.210696
0.213359
0.215639
0.217507
0.219012
0.220285
0.221504
0.222794
0.224076
0.113099
0.0430433
0.0730199
0.0732175
0.0744314
0.0757256
0.0770353
0.0784217
0.0799043
0.0814665
0.0830873
0.0847404
0.0863837
0.0879573
0.0893866
0.0905966
0.0915275
0.0921397
0.0924239
0.0923973
0.0920669
0.0913921
0.0904506
0.032324
-0.106546
-0.0610434
-0.0535315
-0.0512738
-0.0502303
-0.0496513
-0.0493168
-0.0491318
-0.0490564
-0.0490711
-0.0491644
-0.0493338
-0.0495843
-0.0499269
-0.0503766
-0.0509521
-0.0516851
-0.0526319
-0.0538983
-0.0556855
-0.0583274
-0.0621058
927.717
941.67
936.446
725.989
1025.93
1031.17
1020.49
983.869
1048.82
1053.52
1053.72
1053.65
1051.14
1060.27
1068.39
1075.76
1075.64
1083.18
1091.64
1100.76
290.961
392.195
502.375
649.522
3.13658
3.16924
3.79
10.8248
3.71141
3.727
3.72904
3.70314
3.5278
3.56049
3.61384
3.68696
3.55751
3.59755
3.64077
3.68748
3.55594
3.59644
3.64064
3.68622
3.54052
3.58293
3.62909
3.67615
3.51392
3.55753
3.60469
3.65261
3.47607
3.52025
3.56786
3.61622
3.42702
3.47134
3.51907
3.56761
3.36708
3.41124
3.45881
3.50727
3.2965
3.3402
3.38736
3.43551
3.2157
3.25864
3.30513
3.3527
3.12532
3.16722
3.21273
3.25945
3.0261
3.06669
3.11096
3.15649
2.91871
2.95781
3.00057
3.04464
2.80386
2.84128
2.88232
2.92468
2.68222
2.71783
2.75697
2.79739
2.55457
2.5882
2.62526
2.66352
2.42167
2.45318
2.48795
2.52381
2.28428
2.31352
2.34578
2.37899
2.14309
2.16994
2.19949
2.2298
1.9988
2.02314
2.04983
2.07706
1.85207
1.87385
1.89758
1.92162
1.70356
1.72281
1.74358
1.7644
1.55392
1.57075
1.58863
1.60632
1.40367
1.41828
1.43349
1.44824
1.25322
1.26587
1.27872
1.29086
1.10293
1.11388
1.12473
1.13463
0.953124
0.962585
0.971758
0.979818
0.804157
0.812256
0.82001
0.826544
0.656454
0.663217
0.669675
0.67487
0.510313
0.515719
0.520865
0.52473
0.365921
0.369799
0.373513
0.376094
0.225538
0.2275
0.229675
0.231226
0.0907332
0.0913143
0.0918031
0.0916363
-0.0648576
-0.0663946
-0.0676664
-0.0688456
382.616
383.947
383.324
382.573
381.707
380.961
380.736
380.81
380.856
380.755
380.667
380.576
380.819
382.496
383.274
383.61
384.082
384.552
385.113
800.169
591.877
418.796
384.936
398.175
477.032
642.333
695.654
659.614
609.738
613.159
599.684
520.734
434.725
389.135
384.42
384.211
384.2
385.169
1053.84
1046.52
938.613
856.685
879.597
966.856
1039.6
1055.79
1060.37
1063.25
1073.4
1089.63
1107.91
1050.43
765.148
468.705
385.955
384.228
385.166
1086.01
1097.68
1111.07
1118.59
1114.87
1106.23
1101.21
1104.6
1114.15
1128.92
1149.14
1176.53
1208.89
1241.93
1269.53
1152.02
636.697
389.962
388.241
1115.75
1126.88
1135.13
1141.22
1143.37
1142.83
1142.86
1146.43
1155.4
1171.75
1198.39
1238.33
1283.57
1328.52
1371.39
1407.21
1280.13
620.109
404.186
782.128
839.22
869.579
912.876
916.767
903.166
861.07
788.81
745.219
763.09
869.869
1128.78
1332.48
1405.36
1469.74
1517.48
1555.45
1113.16
485.16
30.0544
48.6211
62.5845
82.6512
84.5742
78.0267
61.6669
40.9465
31.2845
35.2769
63.9487
155.229
442.157
1114.53
1537.17
1621.42
1680.84
1431.26
601.431
3.62362
3.56727
3.5872
3.70843
3.97913
4.34265
4.78605
5.22705
5.60662
6.00184
6.60715
7.85198
10.9284
217.759
1052.08
1690.3
1791.01
1495.12
632.248
3.81886
3.96956
4.12537
4.29574
4.47826
4.69268
4.95593
5.26318
5.59729
5.96359
6.40848
7.04736
7.43464
11.8578
445.748
1584.69
1884.71
1391.95
587.324
3.77631
3.90072
4.04478
4.22002
4.42802
4.67603
4.96148
5.28063
5.62841
6.00421
6.41581
6.91888
7.08439
7.25433
130.353
1343.51
1973.98
1222.15
559.345
3.76572
3.8897
4.03646
4.21536
4.43002
4.68002
4.96276
5.27302
5.60508
5.95449
6.31314
6.69187
6.97598
6.3986
13.7219
1086.74
2005.07
1106.5
556.122
3.75717
3.88615
4.03847
4.2193
4.42992
4.67017
4.93792
5.22832
5.53448
5.84673
6.14692
6.42258
6.66435
6.45681
7.04924
668.709
2003.96
1149.51
564.196
3.73492
3.86583
4.01905
4.19794
4.40237
4.63195
4.88464
5.15573
5.43756
5.71843
5.9791
6.19979
6.39664
6.46373
6.25479
327.437
1934.98
1343.91
583.285
3.69904
3.82986
3.98187
4.15693
4.35428
4.57332
4.81205
5.06591
5.32733
5.58528
5.82459
6.02873
6.21008
6.37093
6.09638
111.709
1845.7
1680.43
617.142
3.65055
3.78057
3.93013
4.1005
4.29052
4.49952
4.72578
4.96528
5.2112
5.45407
5.68309
5.8893
6.08657
6.32385
6.23723
8.45219
1488.4
2008.85
791.987
3.58987
3.71835
3.86484
4.03016
4.213
4.41293
4.62873
4.85722
5.09251
5.32614
5.5491
5.75584
5.96422
6.30288
6.32616
7.5245
1028.06
2101.45
1045.88
3.51734
3.64364
3.7866
3.94673
4.1228
4.31483
4.52238
4.74316
4.9719
5.19965
5.4138
5.59574
5.71096
5.94605
6.42378
58.3531
1010.1
1994.29
1124.72
3.43334
3.55688
3.69591
3.8508
4.02063
4.20596
4.40738
4.62364
4.84988
5.07547
5.28108
5.425
5.36388
5.49725
6.01883
706.615
1342.02
1102.32
1077.62
3.33842
3.45864
3.59335
3.74297
3.90706
4.08687
4.28419
4.49917
4.72771
4.95825
5.17479
5.28293
5.00765
5.00773
79.8569
1187.76
1409.67
1187.17
1089.81
3.23331
3.34965
3.47966
3.62393
3.78266
3.95807
4.15341
4.37075
4.60835
4.86328
5.10356
5.23605
5.00473
4.69014
100.661
979.548
1381.52
1332.38
991.92
3.11883
3.23074
3.35568
3.4945
3.64825
3.82033
4.01575
4.2393
4.49421
4.7903
5.09847
5.326
5.30217
4.94222
5.16786
27.563
493.358
1022.86
876.699
2.99584
3.10283
3.22232
3.35555
3.50457
3.67406
3.87119
4.10474
4.41849
4.75075
5.1438
5.57049
5.82143
5.89686
6.0415
7.3137
3.99282
264.297
700.496
2.86514
2.96675
3.08038
3.20775
3.35182
3.51885
3.71837
4.00429
4.33308
4.67597
5.18505
5.8703
6.39467
6.6367
6.55568
6.90391
3.58749
73.5167
713.839
2.72749
2.82325
2.93047
3.05139
3.18976
3.3528
3.57696
3.90322
4.1815
4.50615
5.11237
6.01593
6.74719
6.8954
8.76548
7.01962
3.88635
96.5704
650.573
2.5836
2.67293
2.77303
2.88645
3.01732
3.17287
3.47688
3.71568
3.90588
4.18414
5.16694
11.083
46.78
61.2366
29.8651
8.07594
15.7718
103.821
219.184
2.43418
2.51643
2.60846
2.7129
2.83373
2.97719
3.28084
3.45643
3.5778
3.71004
4.30425
73.1384
544.781
353.315
25.9432
13.2144
38.1858
36.7848
44.918
2.27998
2.35452
2.43746
2.53116
2.6389
2.76483
3.04925
3.18585
3.2178
3.18553
3.67967
385.177
659.952
632.325
130.676
19.7507
29.4554
19.1424
27.5478
2.12191
2.18821
2.26121
2.34264
2.43466
2.53846
2.86549
3.08951
2.89547
2.70224
2.52857
411.555
693.963
697.439
298.726
24.8761
25.5299
20.889
22.2786
1.96096
2.01876
2.08139
2.14977
2.22472
2.30415
2.39092
3.20147
2.63732
2.30171
1.7991
214.881
713.672
718.422
431.753
27.3141
23.3651
20.5213
19.7538
1.79821
1.84751
1.89975
1.95501
2.01257
2.0681
2.11842
3.23923
3.9226
2.20055
1.54493
51.488
706.226
737.371
517.174
31.6917
20.4044
18.7688
17.514
1.63474
1.67583
1.71813
1.761
1.80286
1.83889
1.86655
3.08419
3.92264
2.79138
1.54467
1.64104
679.716
754.896
536.869
31.5412
18.2342
17.4807
15.9939
1.47162
1.50504
1.53815
1.56985
1.59845
1.61999
1.6306
2.24851
3.7179
3.12823
1.55552
1.75225
666.953
770.213
578.085
35.3572
16.3851
16.2301
16.1631
1.30971
1.33619
1.36107
1.38295
1.40032
1.4103
1.41013
1.38699
3.35884
2.64254
1.45839
1.52367
708.226
785.461
699.575
52.3184
15.2791
14.0951
14.1715
1.14959
1.16997
1.18767
1.20105
1.20867
1.20837
1.19998
1.1702
1.28495
2.05651
1.21594
0.92128
673.26
807.846
809.269
190.787
12.6885
11.2035
11.7371
0.991518
1.00662
1.01822
1.02449
1.02383
1.01416
0.994642
0.970016
0.886463
1.1375
0.915377
0.409373
444.151
833.823
828.308
383.173
6.61164
6.97405
9.0717
0.835524
0.845977
0.852498
0.85307
0.845878
0.828796
0.796698
0.742719
0.666098
0.582342
0.542673
0.18782
26.8029
620.02
858.728
347.361
1.9633
3.3576
7.31596
0.681406
0.687597
0.689759
0.685858
0.673877
0.651411
0.613055
0.550679
0.459185
0.326694
0.218429
-0.00727095
-0.35646
36.7692
147.168
164.12
13.2983
14.6538
16.297
0.528847
0.530944
0.529176
0.521679
0.506416
0.48071
0.439324
0.372944
0.269611
0.11562
-0.0901089
-0.368901
-0.729657
-1.18562
-1.6551
4.10053
18.874
15.5042
7.86632
0.378237
0.37679
0.371594
0.361167
0.34362
0.31643
0.274606
0.208541
0.104279
-0.0607669
-0.314443
-0.675642
-1.13272
-1.65359
-1.95007
-2.54143
10.705
2.90606
-0.283301
0.232276
0.228405
0.220722
0.208316
0.1895
0.162069
0.122076
0.0609904
-0.037283
-0.199547
-0.466751
-0.866538
-1.34869
-1.84103
-2.08107
-2.26562
-2.39506
-2.11981
-0.304397
0.0898255
0.0842486
0.0751473
0.0617603
0.0428141
0.0165775
-0.0194863
-0.0704973
-0.147179
-0.270554
-0.47874
-0.826541
-1.30231
-1.73003
-1.98302
-2.10472
-2.24408
-1.08958
0.126967
-0.0711473
-0.0765013
-0.0853725
-0.0980651
-0.115202
-0.137802
-0.166989
-0.203078
-0.244397
-0.286183
-0.323235
-0.37247
-0.513238
-0.735489
-0.83285
-0.85509
-0.941861
-0.618146
-0.365652
)
;

boundaryField
{
    leftWall
    {
        type            fixedFluxPressure;
        gradient        uniform 0;
        value           nonuniform List<scalar> 
50
(
740.265
739.794
738.496
737.165
736.05
735.086
734.249
733.666
733.176
698.238
171.346
2.5597
2.73595
2.70893
2.70878
2.68505
2.65636
2.62277
2.58485
2.5429
2.49713
2.44773
2.39481
2.33845
2.27873
2.21571
2.14943
2.07996
2.00734
1.93164
1.85293
1.7713
1.68685
1.5997
1.51
1.41791
1.32358
1.22721
1.12897
1.02905
0.927617
0.824842
0.721091
0.617001
0.512714
0.408142
0.303878
0.203608
0.113099
0.032324
)
;
    }
    rightWall
    {
        type            fixedFluxPressure;
        gradient        uniform 0;
        value           nonuniform List<scalar> 
50
(
385.194
385.172
385.145
385.116
385.089
385.067
385.051
385.054
385.113
385.169
385.166
388.241
404.186
485.16
601.431
632.248
587.324
559.345
556.122
564.196
583.285
617.142
791.987
1045.88
1124.72
1077.62
1089.81
991.92
876.699
700.496
713.839
650.573
219.184
44.918
27.5478
22.2786
19.7538
17.514
15.9939
16.1631
14.1715
11.7371
9.0717
7.31596
16.297
7.86632
-0.283301
-0.304397
0.126967
-0.365652
)
;
    }
    lowerWall
    {
        type            fixedFluxPressure;
        gradient        uniform 0;
        value           nonuniform List<scalar> 
62
(
740.265
739.996
747.682
758.591
769.543
779.24
787.96
796.248
804.652
813.601
823.424
834.402
846.829
861.089
877.835
897.736
921.564
949.404
980.079
1009.05
1029.59
1025.99
1052.82
1052.82
1052.56
1055.91
1066.1
1079.1
1088.49
1089.01
1073.89
927.717
941.67
936.446
725.989
383.701
383.731
383.747
383.742
383.715
383.667
383.592
383.532
383.701
383.596
383.347
382.944
382.447
381.954
381.56
381.299
381.155
381.115
381.21
381.498
382.028
382.746
383.513
384.221
384.813
385.167
385.194
)
;
    }
    atmosphere
    {
        type            totalPressure;
        rho             rho;
        psi             none;
        gamma           1;
        p0              uniform 0;
        value           nonuniform List<scalar> 
46
(
-0.0595578
-0.143909
-0.132217
-0.129676
-0.128263
-0.127727
-0.12772
-0.128071
-0.128691
-0.129531
-0.130554
-0.131729
-0.133026
-0.134415
-0.135864
-0.137345
-0.138843
-0.140365
-0.14197
-0.143806
-0.14618
-0.149694
-0.155551
-0.16279
-0.166733
-0.169091
-0.169809
-0.169678
-0.174315
-0.182181
-0.192511
-0.205316
-0.221008
-0.239985
-0.260888
-0.278181
-0.279999
-0.243226
-0.138448
-0.00461849
0
0
0
0
0
0
)
;
    }
    defaultFaces
    {
        type            empty;
    }
}


// ************************************************************************* //
