/*--------------------------------*- C++ -*----------------------------------*\
| =========                 |                                                 |
| \\      /  F ield         | OpenFOAM: The Open Source CFD Toolbox           |
|  \\    /   O peration     | Version:  v2012                                 |
|   \\  /    A nd           | Website:  www.openfoam.com                      |
|    \\/     M anipulation  |                                                 |
\*---------------------------------------------------------------------------*/
FoamFile
{
    version     2.0;
    format      ascii;
    class       surfaceScalarField;
    location    "0.45";
    object      phi;
}
// * * * * * * * * * * * * * * * * * * * * * * * * * * * * * * * * * * * * * //

dimensions      [0 3 -1 0 0 0 0];
oriented        oriented;


internalField   nonuniform List<scalar> 
4432
(
-5.29601e-06
5.29601e-06
-6.21057e-06
9.14564e-07
-3.57282e-06
-2.63775e-06
3.15967e-07
-3.88879e-06
4.46532e-06
-4.14935e-06
8.46104e-06
-3.99571e-06
1.21377e-05
-3.6767e-06
1.54598e-05
-3.32202e-06
1.84363e-05
-2.97651e-06
2.10827e-05
-2.64641e-06
2.34022e-05
-2.31947e-06
2.53736e-05
-1.97139e-06
2.69393e-05
-1.56571e-06
2.79844e-05
-1.04514e-06
2.82716e-05
-2.87239e-07
2.73646e-05
9.07015e-07
2.47775e-05
2.58711e-06
2.00074e-05
4.77014e-06
1.27692e-05
7.23824e-06
3.43227e-06
9.33689e-06
-6.71974e-06
1.0152e-05
-1.1962e-05
5.24222e-06
-1.1962e-05
-3.4772e-06
8.7732e-06
-2.53442e-06
-2.82129e-08
1.89733e-07
-5.3619e-06
3.7309e-06
-7.42996e-06
7.52689e-06
-7.94534e-06
1.12202e-05
-7.68899e-06
1.46653e-05
-7.1218e-06
1.78133e-05
-6.47e-06
2.06563e-05
-5.81956e-06
2.31951e-05
-5.18523e-06
2.5421e-05
-4.5453e-06
2.73047e-05
-3.85511e-06
2.8788e-05
-3.04903e-06
2.97768e-05
-2.03392e-06
3.01603e-05
-6.70731e-07
2.98023e-05
1.26499e-06
2.83788e-05
4.0106e-06
2.53925e-05
7.75646e-06
2.02149e-05
1.24158e-05
1.25122e-05
1.70396e-05
3.20229e-06
1.94619e-05
-3.02517e-06
1.14697e-05
-1.49871e-05
-1.41196e-06
1.01852e-05
1.81961e-07
-1.62213e-06
2.85784e-06
-8.03777e-06
6.1967e-06
-1.07688e-05
9.69496e-06
-1.14436e-05
1.30977e-05
-1.10918e-05
1.62886e-05
-1.03126e-05
1.9224e-05
-9.4054e-06
2.18906e-05
-8.48618e-06
2.42803e-05
-7.57493e-06
2.63764e-05
-6.64139e-06
2.8145e-05
-5.6237e-06
2.95284e-05
-4.43242e-06
3.04407e-05
-2.94629e-06
3.07731e-05
-1.00315e-06
3.04084e-05
1.62968e-06
2.91851e-05
5.23394e-06
2.68878e-05
1.00537e-05
2.3218e-05
1.60856e-05
1.78858e-05
2.23717e-05
1.10877e-05
2.626e-05
4.15497e-06
1.84025e-05
-1.08322e-05
4.32622e-07
9.75254e-06
2.35286e-06
-3.54237e-06
5.1493e-06
-1.08342e-05
8.33702e-06
-1.39566e-05
1.15846e-05
-1.46912e-05
1.47154e-05
-1.42226e-05
1.7654e-05
-1.32511e-05
2.03714e-05
-1.21228e-05
2.28542e-05
-1.09689e-05
2.50882e-05
-9.80898e-06
2.70508e-05
-8.60395e-06
2.87046e-05
-7.27754e-06
2.99932e-05
-5.72101e-06
3.08392e-05
-3.79231e-06
3.11485e-05
-1.31242e-06
3.08237e-05
1.9545e-06
2.97701e-05
6.28748e-06
2.78992e-05
1.19247e-05
2.51094e-05
1.88754e-05
2.12152e-05
2.62659e-05
1.59757e-05
3.14995e-05
8.97807e-06
2.54001e-05
-1.85409e-06
1.88985e-06
7.86269e-06
4.24156e-06
-5.89409e-06
7.18339e-06
-1.3776e-05
1.02812e-05
-1.70544e-05
1.33097e-05
-1.77197e-05
1.61811e-05
-1.70939e-05
1.88711e-05
-1.59412e-05
2.1371e-05
-1.46227e-05
2.36692e-05
-1.32672e-05
2.57474e-05
-1.18872e-05
2.75779e-05
-1.04345e-05
2.91214e-05
-8.82098e-06
3.03232e-05
-6.9228e-06
3.11142e-05
-4.58341e-06
3.14165e-05
-1.61472e-06
3.11558e-05
2.21523e-06
3.02771e-05
7.16615e-06
2.87539e-05
1.34479e-05
2.65707e-05
2.10587e-05
2.35892e-05
2.92475e-05
1.9359e-05
3.57297e-05
1.22982e-05
3.24609e-05
1.04441e-05
2.82569e-06
5.037e-06
5.84985e-06
-8.91825e-06
9.02817e-06
-1.69543e-05
1.20721e-05
-2.00983e-05
1.4891e-05
-2.05386e-05
1.75064e-05
-1.97093e-05
1.99518e-05
-1.83866e-05
2.22384e-05
-1.69093e-05
2.43562e-05
-1.5385e-05
2.62823e-05
-1.38133e-05
2.7985e-05
-1.21373e-05
2.94239e-05
-1.02598e-05
3.05469e-05
-8.0458e-06
3.1293e-05
-5.32953e-06
3.15996e-05
-1.92136e-06
3.14142e-05
2.40071e-06
3.07102e-05
7.87013e-06
2.94973e-05
1.46607e-05
2.78016e-05
2.27544e-05
2.55034e-05
3.15457e-05
2.20292e-05
3.92039e-05
1.50919e-05
3.93981e-05
2.5536e-05
3.50668e-06
1.53033e-06
7.28949e-06
-1.27011e-05
1.07588e-05
-2.04236e-05
1.37381e-05
-2.30776e-05
1.63272e-05
-2.31278e-05
1.86796e-05
-2.20617e-05
2.08846e-05
-2.05916e-05
2.29661e-05
-1.89907e-05
2.49113e-05
-1.73302e-05
2.66919e-05
-1.55938e-05
2.82726e-05
-1.3718e-05
2.96128e-05
-1.16e-05
3.0664e-05
-9.097e-06
3.1373e-05
-6.03852e-06
3.16917e-05
-2.24008e-06
3.15867e-05
2.50566e-06
3.10546e-05
8.40228e-06
3.01312e-05
1.55841e-05
2.8873e-05
2.40126e-05
2.71882e-05
3.32305e-05
2.44857e-05
4.19065e-05
1.79063e-05
4.59775e-05
4.34423e-05
4.14152e-06
-2.61118e-06
8.7486e-06
-1.73081e-05
1.2467e-05
-2.4142e-05
1.52915e-05
-2.59021e-05
1.75986e-05
-2.54349e-05
1.96777e-05
-2.41407e-05
2.16519e-05
-2.25658e-05
2.35425e-05
-2.08813e-05
2.53276e-05
-1.91154e-05
2.69719e-05
-1.72381e-05
2.84372e-05
-1.51832e-05
2.96842e-05
-1.2847e-05
3.06691e-05
-1.00819e-05
3.13463e-05
-6.71578e-06
3.16816e-05
-2.5754e-06
3.16586e-05
2.52869e-06
3.12927e-05
8.7682e-06
3.06425e-05
1.62343e-05
2.97989e-05
2.48562e-05
2.87286e-05
3.43007e-05
2.69661e-05
4.3669e-05
2.15645e-05
5.13792e-05
6.50067e-05
-6.9315e-06
6.9315e-06
-2.60482e-05
1.91166e-05
-5.2901e-05
2.68528e-05
-8.54734e-05
3.25724e-05
-0.000118685
3.32114e-05
-0.000146851
2.81664e-05
-0.000166928
2.00764e-05
-0.000179857
1.29297e-05
-0.000188075
8.21813e-06
-0.000192351
4.27541e-06
-0.0001915
-8.50497e-07
-0.000184174
-7.32607e-06
-0.000169429
-1.4745e-05
-0.000148079
-2.13506e-05
-0.000122755
-2.53239e-05
-9.50171e-05
-2.77378e-05
-6.29262e-05
-3.20908e-05
-2.59612e-05
-3.69649e-05
-2.59612e-05
-2.25422e-05
2.94737e-05
-5.41758e-05
5.07502e-05
-8.85997e-05
6.12767e-05
-0.000121189
6.51621e-05
-0.000147612
5.96345e-05
-0.000165869
4.64227e-05
-0.00017717
3.13774e-05
-0.000184424
2.01844e-05
-0.000189542
1.33359e-05
-0.000192334
7.06764e-06
-0.000191352
-1.83261e-06
-0.000184362
-1.43167e-05
-0.000169916
-2.91904e-05
-0.000148677
-4.25894e-05
-0.000123429
-5.05718e-05
-9.60733e-05
-5.50939e-05
-6.51489e-05
-6.30152e-05
-2.94919e-05
-7.26219e-05
-5.54531e-05
-2.77558e-05
5.72295e-05
-5.84504e-05
8.14447e-05
-8.84925e-05
9.13187e-05
-0.000115652
9.23212e-05
-0.000137979
8.19616e-05
-0.000154665
6.31091e-05
-0.000166261
4.29736e-05
-0.000174589
2.85124e-05
-0.0001812
1.99473e-05
-0.000185793
1.16601e-05
-0.0001866
-1.02508e-06
-0.000181373
-1.95445e-05
-0.000168416
-4.21471e-05
-0.000147961
-6.30446e-05
-0.000123157
-7.53756e-05
-9.65267e-05
-8.17241e-05
-6.68319e-05
-9.271e-05
-3.21286e-05
-0.000107325
-8.75818e-05
-2.71762e-05
8.44057e-05
-5.34359e-05
0.000107704
-7.87351e-05
0.000116618
-0.000103104
0.00011669
-0.000124553
0.000103411
-0.000141292
7.98478e-05
-0.000152965
5.46468e-05
-0.000161413
3.69603e-05
-0.000168697
2.72313e-05
-0.000174773
1.77356e-05
-0.000177862
2.06408e-06
-0.000175524
-2.18821e-05
-0.000165203
-5.2468e-05
-0.000146161
-8.20874e-05
-0.000122036
-9.95005e-05
-9.62236e-05
-0.000107536
-6.75717e-05
-0.000121362
-3.35459e-05
-0.000141351
-0.000121128
-2.38962e-05
0.000108302
-4.50225e-05
0.000128831
-6.60134e-05
0.000137609
-8.80884e-05
0.000138765
-0.000108188
0.00012351
-0.000123716
9.53763e-05
-0.000134214
6.51451e-05
-0.000141863
4.46086e-05
-0.000149098
3.4467e-05
-0.000156195
2.48325e-05
-0.000161721
7.58968e-06
-0.000163354
-2.02486e-05
-0.000157496
-5.83265e-05
-0.000141554
-9.80295e-05
-0.000119314
-0.00012174
-9.50327e-05
-0.000131817
-6.77126e-05
-0.000148682
-3.4436e-05
-0.000174628
-0.000155564
-1.98196e-05
0.000128121
-3.48624e-05
0.000143873
-5.07216e-05
0.000153468
-6.9385e-05
0.000157428
-8.64535e-05
0.000140579
-9.92919e-05
0.000108215
-0.000107881
7.37344e-05
-0.000114285
5.10125e-05
-0.000120618
4.08003e-05
-0.000127463
3.16774e-05
-0.000134312
1.4438e-05
-0.00013997
-1.45898e-05
-0.000140517
-5.77796e-05
-0.000130744
-0.000107803
-0.000113154
-0.00013933
-9.23069e-05
-0.000152664
-6.75521e-05
-0.000173437
-3.55791e-05
-0.000206601
-0.000191143
-1.54044e-05
0.000143526
-2.27999e-05
0.000151269
-3.20529e-05
0.000162721
-4.5528e-05
0.000170903
-5.75031e-05
0.000152554
-6.62585e-05
0.00011697
-7.27607e-05
8.02365e-05
-7.8061e-05
5.63129e-05
-8.28337e-05
4.5573e-05
-8.77686e-05
3.66123e-05
-9.35688e-05
2.02382e-05
-0.000101153
-7.00578e-06
-0.000108446
-5.04865e-05
-0.000108396
-0.000107853
-9.98563e-05
-0.00014787
-8.6282e-05
-0.000166238
-6.67412e-05
-0.000192977
-3.7612e-05
-0.00023573
-0.000228755
-1.00278e-05
0.000153553
-6.63665e-06
0.000147878
-8.56961e-06
0.000164654
-1.49787e-05
0.000177312
-1.96721e-05
0.000157247
-2.28151e-05
0.000120113
-2.67872e-05
8.42086e-05
-3.09845e-05
6.05102e-05
-3.3715e-05
4.83035e-05
-3.58229e-05
3.87203e-05
-3.82134e-05
2.26287e-05
-4.46281e-05
-5.91051e-07
-5.6843e-05
-3.82716e-05
-6.80719e-05
-9.66239e-05
-7.4734e-05
-0.000141208
-7.43332e-05
-0.000166639
-6.3743e-05
-0.000203568
-4.02866e-05
-0.000259186
-0.000269041
1.17991e-05
-1.44103e-05
2.44561e-05
-2.99651e-05
3.21741e-05
-3.186e-05
3.70029e-05
-3.07309e-05
4.081e-05
-2.9242e-05
4.43836e-05
-2.77144e-05
4.79291e-05
-2.61113e-05
5.14199e-05
-2.43721e-05
5.47638e-05
-2.24593e-05
5.78616e-05
-2.0336e-05
6.06273e-05
-1.79488e-05
6.29915e-05
-1.52113e-05
6.48828e-05
-1.19732e-05
6.62299e-05
-8.06284e-06
6.70059e-05
-3.35143e-06
6.72259e-05
2.30863e-06
6.69674e-05
9.02674e-06
6.6421e-05
1.67807e-05
6.59111e-05
2.53661e-05
6.56258e-05
3.45861e-05
6.53255e-05
4.39692e-05
6.41656e-05
5.25391e-05
6.31814e-05
6.59909e-05
2.01194e-05
-3.45297e-05
3.4302e-05
-4.41476e-05
3.85109e-05
-3.60689e-05
4.05812e-05
-3.28012e-05
4.28944e-05
-3.15552e-05
4.56816e-05
-3.05016e-05
4.8724e-05
-2.91537e-05
5.18115e-05
-2.74596e-05
5.47814e-05
-2.54292e-05
5.7504e-05
-2.30586e-05
5.98835e-05
-2.03283e-05
6.18762e-05
-1.72039e-05
6.34682e-05
-1.35651e-05
6.46515e-05
-9.24619e-06
6.54845e-05
-4.1844e-06
6.60435e-05
1.74966e-06
6.64078e-05
8.66237e-06
6.6771e-05
1.64175e-05
6.75692e-05
2.45679e-05
6.89362e-05
3.3219e-05
7.06123e-05
4.22931e-05
7.21506e-05
5.10008e-05
6.10509e-05
7.42811e-05
3.45078e-05
-6.90376e-05
4.18406e-05
-5.14804e-05
3.94323e-05
-3.36607e-05
3.96131e-05
-3.2982e-05
4.16571e-05
-3.35992e-05
4.44663e-05
-3.33108e-05
4.74887e-05
-3.2176e-05
5.05098e-05
-3.04807e-05
5.33817e-05
-2.83011e-05
5.59725e-05
-2.56494e-05
5.81659e-05
-2.25217e-05
5.98773e-05
-1.89153e-05
6.10547e-05
-1.47425e-05
6.18922e-05
-1.00837e-05
6.2674e-05
-4.96618e-06
6.34003e-05
1.02334e-06
6.42155e-05
7.84724e-06
6.54237e-05
1.52093e-05
6.75299e-05
2.24618e-05
7.02182e-05
3.05306e-05
7.28105e-05
3.97009e-05
7.52606e-05
4.85508e-05
5.66432e-05
7.96682e-05
2.70069e-05
-9.60444e-05
2.824e-05
-5.27135e-05
3.24528e-05
-3.78733e-05
3.65296e-05
-3.70589e-05
3.98747e-05
-3.69443e-05
4.27932e-05
-3.62293e-05
4.55933e-05
-3.4976e-05
4.83147e-05
-3.32022e-05
5.08652e-05
-3.08515e-05
5.31097e-05
-2.78939e-05
5.48903e-05
-2.43023e-05
5.59843e-05
-2.00094e-05
5.57329e-05
-1.44911e-05
5.5306e-05
-9.65685e-06
5.62214e-05
-5.88163e-06
5.75741e-05
-3.29361e-07
5.96769e-05
5.74451e-06
6.27421e-05
1.21441e-05
6.64877e-05
1.87161e-05
7.0391e-05
2.66274e-05
7.4439e-05
3.56529e-05
7.8996e-05
4.39938e-05
5.00382e-05
8.5601e-05
-1.41171e-05
-8.19272e-05
-6.36215e-06
-6.04683e-05
4.75943e-06
-4.89948e-05
1.33812e-05
-4.56806e-05
2.03956e-05
-4.39588e-05
2.62524e-05
-4.20861e-05
3.11036e-05
-3.98273e-05
3.51477e-05
-3.72462e-05
3.85682e-05
-3.42719e-05
4.14885e-05
-3.08142e-05
4.39772e-05
-2.67909e-05
4.60602e-05
-2.20924e-05
4.84498e-05
-1.68807e-05
5.02266e-05
-1.14337e-05
5.05787e-05
-6.2337e-06
5.13121e-05
-1.06276e-06
5.32196e-05
3.83708e-06
5.62631e-05
9.10056e-06
6.11617e-05
1.38176e-05
6.7514e-05
2.0275e-05
7.52014e-05
2.79655e-05
8.34201e-05
3.5775e-05
4.11092e-05
9.23492e-05
-1.39606e-05
-6.79666e-05
-7.54231e-06
-6.68865e-05
2.40274e-06
-5.89399e-05
1.07971e-05
-5.40749e-05
1.75201e-05
-5.06818e-05
2.30277e-05
-4.75935e-05
2.76547e-05
-4.44543e-05
3.15694e-05
-4.11607e-05
3.49047e-05
-3.76071e-05
3.77788e-05
-3.36881e-05
4.03001e-05
-2.93121e-05
4.26185e-05
-2.44107e-05
4.47532e-05
-1.90153e-05
4.67431e-05
-1.34236e-05
4.83811e-05
-7.87171e-06
4.99648e-05
-2.64644e-06
5.2085e-05
1.71696e-06
5.44808e-05
6.70482e-06
5.57293e-05
1.25692e-05
6.08329e-05
1.51714e-05
7.07383e-05
1.80601e-05
8.23564e-05
2.4157e-05
2.94488e-05
9.40168e-05
-3.9282e-06
-6.40384e-05
-1.11973e-06
-6.9695e-05
5.0679e-06
-6.51275e-05
1.14505e-05
-6.04575e-05
1.71498e-05
-5.63812e-05
2.21536e-05
-5.25973e-05
2.65772e-05
-4.88779e-05
3.0506e-05
-4.50895e-05
3.40191e-05
-4.11202e-05
3.72015e-05
-3.68705e-05
4.01484e-05
-3.2259e-05
4.29726e-05
-2.72349e-05
4.57759e-05
-2.18187e-05
4.85465e-05
-1.61942e-05
5.12112e-05
-1.05363e-05
5.36708e-05
-5.10597e-06
5.54276e-05
-3.97453e-08
5.74286e-05
4.70391e-06
6.15535e-05
8.44431e-06
6.74307e-05
9.29423e-06
7.68922e-05
8.59861e-06
8.35574e-05
1.74918e-05
2.10331e-05
9.19731e-05
-7.33548e-07
-6.33048e-05
2.26791e-06
-7.26964e-05
6.83578e-06
-6.96954e-05
1.17104e-05
-6.53322e-05
1.64334e-05
-6.11043e-05
2.09006e-05
-5.70645e-05
2.51092e-05
-5.30866e-05
2.90774e-05
-4.90577e-05
3.28386e-05
-4.48814e-05
3.64437e-05
-4.04756e-05
3.99611e-05
-3.57765e-05
4.34762e-05
-3.07501e-05
4.70742e-05
-2.54166e-05
5.07625e-05
-1.98825e-05
5.45189e-05
-1.42927e-05
5.82605e-05
-8.84744e-06
6.19707e-05
-3.74989e-06
6.58946e-05
7.80077e-07
7.02292e-05
4.10962e-06
7.37011e-05
5.82236e-06
7.49449e-05
7.35485e-06
8.09583e-05
1.14784e-05
1.32156e-05
8.87759e-05
8.52613e-07
-6.41574e-05
3.70344e-06
-7.55472e-05
7.18209e-06
-7.31741e-05
1.09808e-05
-6.9131e-05
1.49047e-05
-6.50281e-05
1.88567e-05
-6.10166e-05
2.27954e-05
-5.70253e-05
2.67074e-05
-5.29697e-05
3.06018e-05
-4.87758e-05
3.45086e-05
-4.43824e-05
3.8477e-05
-3.97449e-05
4.25704e-05
-3.48435e-05
4.68523e-05
-2.96985e-05
5.13542e-05
-2.43844e-05
5.60828e-05
-1.90212e-05
6.10131e-05
-1.37777e-05
6.612e-05
-8.85683e-06
7.14012e-05
-4.5011e-06
7.65552e-05
-1.04444e-06
8.0965e-05
1.41259e-06
8.47972e-05
3.52265e-06
9.02675e-05
6.00808e-06
7.57246e-06
9.59107e-05
1.63705e-06
-6.57945e-05
3.88837e-06
-7.77985e-05
6.49426e-06
-7.578e-05
9.48227e-06
-7.2119e-05
1.27535e-05
-6.82994e-05
1.62239e-05
-6.4487e-05
1.98438e-05
-6.06453e-05
2.35906e-05
-5.67165e-05
2.74644e-05
-5.26496e-05
3.14859e-05
-4.84039e-05
3.56933e-05
-4.39522e-05
4.01368e-05
-3.9287e-05
4.48677e-05
-3.44293e-05
4.99217e-05
-2.94382e-05
5.53112e-05
-2.44107e-05
6.10165e-05
-1.94831e-05
6.69829e-05
-1.48232e-05
7.31023e-05
-1.06206e-05
7.91245e-05
-7.0667e-06
8.47427e-05
-4.20561e-06
9.00235e-05
-1.75819e-06
9.54415e-05
5.90053e-07
2.47266e-06
0.000100541
1.74129e-06
-6.75357e-05
3.33778e-06
-7.9395e-05
5.26645e-06
-7.77086e-05
7.62524e-06
-7.44778e-05
1.03485e-05
-7.10226e-05
1.33661e-05
-6.75047e-05
1.66329e-05
-6.39122e-05
2.01273e-05
-6.02109e-05
2.38483e-05
-5.63707e-05
2.78133e-05
-5.23688e-05
3.20541e-05
-4.8193e-05
3.66126e-05
-4.38453e-05
4.15311e-05
-3.93477e-05
4.68412e-05
-3.47484e-05
5.25533e-05
-3.01228e-05
5.8645e-05
-2.55748e-05
6.50518e-05
-2.12301e-05
7.16542e-05
-1.72231e-05
7.82597e-05
-1.36722e-05
8.46626e-05
-1.06086e-05
9.08254e-05
-7.92101e-06
9.69204e-05
-5.50499e-06
-3.5165e-06
0.00010291
1.50264e-06
-6.90383e-05
2.53781e-06
-8.04301e-05
3.93512e-06
-7.91059e-05
5.78461e-06
-7.63273e-05
8.03271e-06
-7.32707e-05
1.06229e-05
-7.00949e-05
1.35188e-05
-6.6808e-05
1.67037e-05
-6.33959e-05
2.01788e-05
-5.98457e-05
2.39601e-05
-5.615e-05
2.80754e-05
-5.23082e-05
3.25598e-05
-4.83295e-05
3.74483e-05
-4.42362e-05
4.27668e-05
-4.00669e-05
4.85223e-05
-3.58783e-05
5.46926e-05
-3.17452e-05
6.12174e-05
-2.77549e-05
6.7992e-05
-2.39977e-05
7.48681e-05
-2.05485e-05
8.16967e-05
-1.74372e-05
8.84195e-05
-1.46439e-05
9.50948e-05
-1.21802e-05
-1.01609e-05
0.000101739
1.13722e-06
-7.01755e-05
1.76354e-06
-8.10564e-05
2.76255e-06
-8.01049e-05
4.20066e-06
-7.77654e-05
6.03765e-06
-7.51077e-05
8.23282e-06
-7.22901e-05
1.07606e-05
-6.93358e-05
1.36113e-05
-6.62465e-05
1.67888e-05
-6.30231e-05
2.03089e-05
-5.967e-05
2.41964e-05
-5.61956e-05
2.84808e-05
-5.26139e-05
3.31908e-05
-4.89462e-05
3.83469e-05
-4.5223e-05
4.39535e-05
-4.14849e-05
4.99903e-05
-3.7782e-05
5.64063e-05
-3.4171e-05
6.3117e-05
-3.07084e-05
7.00105e-05
-2.74421e-05
7.69767e-05
-2.44034e-05
8.39539e-05
-2.16211e-05
9.09459e-05
-1.91722e-05
-1.71813e-05
9.79663e-05
7.8302e-07
-7.09585e-05
1.15539e-06
-8.14289e-05
1.87339e-06
-8.08229e-05
2.98876e-06
-7.88808e-05
4.47998e-06
-7.65989e-05
6.32397e-06
-7.41341e-05
8.5074e-06
-7.15193e-05
1.10278e-05
-6.87669e-05
1.38929e-05
-6.58882e-05
1.71188e-05
-6.28958e-05
2.07277e-05
-5.98044e-05
2.47448e-05
-5.6631e-05
2.91937e-05
-5.33951e-05
3.40906e-05
-5.01199e-05
3.94378e-05
-4.68322e-05
4.52181e-05
-4.35623e-05
5.13901e-05
-4.0343e-05
5.78882e-05
-3.72066e-05
6.4629e-05
-3.4183e-05
7.15298e-05
-3.13042e-05
7.85346e-05
-2.86259e-05
8.56284e-05
-2.62659e-05
-2.43779e-05
9.28252e-05
5.12504e-07
-7.1471e-05
7.62002e-07
-8.16785e-05
1.29847e-06
-8.13595e-05
2.17308e-06
-7.97554e-05
3.38616e-06
-7.7812e-05
4.93265e-06
-7.56807e-05
6.81152e-06
-7.33982e-05
9.02799e-06
-7.09834e-05
1.15936e-05
-6.84538e-05
1.45253e-05
-6.58275e-05
1.78439e-05
-6.3123e-05
2.15714e-05
-6.03585e-05
2.57273e-05
-5.75511e-05
3.03246e-05
-5.47172e-05
3.53645e-05
-5.18721e-05
4.08328e-05
-4.90306e-05
4.6697e-05
-4.62072e-05
5.29069e-05
-4.34166e-05
5.94009e-05
-4.0677e-05
6.61173e-05
-3.80206e-05
7.30113e-05
-3.55199e-05
8.0068e-05
-3.33227e-05
-3.16172e-05
8.73074e-05
3.52222e-07
-7.18233e-05
5.76832e-07
-8.19032e-05
1.01222e-06
-8.17949e-05
1.71966e-06
-8.04629e-05
2.72119e-06
-7.88136e-05
4.02844e-06
-7.6988e-05
5.65185e-06
-7.50217e-05
7.604e-06
-7.29356e-05
9.90042e-06
-7.07503e-05
1.25595e-05
-6.84865e-05
1.56011e-05
-6.61647e-05
1.90452e-05
-6.38026e-05
2.29086e-05
-6.14146e-05
2.72021e-05
-5.90107e-05
3.19264e-05
-5.65964e-05
3.707e-05
-5.41742e-05
4.26078e-05
-5.1745e-05
4.85021e-05
-4.9311e-05
5.47079e-05
-4.68828e-05
6.11808e-05
-4.44935e-05
6.78893e-05
-4.22283e-05
7.48264e-05
-4.02598e-05
-3.88119e-05
8.20211e-05
2.97302e-07
-7.21207e-05
5.63031e-07
-8.2169e-05
9.59131e-07
-8.21911e-05
1.56226e-06
-8.10661e-05
2.41352e-06
-7.9665e-05
3.53872e-06
-7.81133e-05
4.95816e-06
-7.64412e-05
6.69091e-06
-7.46684e-05
8.7563e-06
-7.28156e-05
1.11742e-05
-7.09045e-05
1.39647e-05
-6.89552e-05
1.71463e-05
-6.69842e-05
2.07342e-05
-6.50025e-05
2.47375e-05
-6.3014e-05
2.91574e-05
-6.10162e-05
3.39847e-05
-5.90015e-05
3.92002e-05
-5.69605e-05
4.47761e-05
-5.4887e-05
5.06804e-05
-5.27871e-05
5.68832e-05
-5.06963e-05
6.33658e-05
-4.8711e-05
7.01324e-05
-4.70264e-05
-4.59004e-05
7.72208e-05
3.25233e-07
-7.2446e-05
6.71084e-07
-8.25149e-05
1.07222e-06
-8.25922e-05
1.62143e-06
-8.16154e-05
2.375e-06
-8.04186e-05
3.3696e-06
-7.9108e-05
4.63331e-06
-7.7705e-05
6.19039e-06
-7.62255e-05
8.06343e-06
-7.46886e-05
1.02739e-05
-7.31149e-05
1.28422e-05
-7.15234e-05
1.57861e-05
-6.99282e-05
1.912e-05
-6.83364e-05
2.28524e-05
-6.67464e-05
2.69846e-05
-6.51484e-05
3.15098e-05
-6.35268e-05
3.64136e-05
-6.18644e-05
4.1676e-05
-6.01494e-05
4.72749e-05
-5.8386e-05
5.31924e-05
-5.66138e-05
5.94218e-05
-5.49404e-05
6.59772e-05
-5.35819e-05
-5.28275e-05
7.29043e-05
4.09061e-07
-7.28551e-05
8.51186e-07
-8.29571e-05
1.28513e-06
-8.30262e-05
1.81761e-06
-8.2148e-05
2.51529e-06
-8.11164e-05
3.42215e-06
-8.00149e-05
4.57152e-06
-7.88543e-05
5.99133e-06
-7.76452e-05
7.70653e-06
-7.64038e-05
9.73995e-06
-7.51483e-05
1.21123e-05
-7.38957e-05
1.48413e-05
-7.26573e-05
1.79408e-05
-7.14359e-05
2.14192e-05
-7.02247e-05
2.52782e-05
-6.90074e-05
2.95132e-05
-6.77618e-05
3.41136e-05
-6.64648e-05
3.90652e-05
-6.5101e-05
4.43539e-05
-6.36747e-05
4.99711e-05
-6.22309e-05
5.59197e-05
-6.08891e-05
6.22227e-05
-5.98848e-05
-5.95349e-05
6.893e-05
5.23529e-07
-7.33787e-05
1.05949e-06
-8.34931e-05
1.53933e-06
-8.35061e-05
2.07955e-06
-8.26882e-05
2.75192e-06
-8.17888e-05
3.60401e-06
-8.0867e-05
4.67184e-06
-7.99221e-05
5.98534e-06
-7.89586e-05
7.57078e-06
-7.79891e-05
9.45179e-06
-7.70293e-05
1.16493e-05
-7.60933e-05
1.41812e-05
-7.51891e-05
1.70609e-05
-7.43156e-05
2.0297e-05
-7.34607e-05
2.38921e-05
-7.26026e-05
2.78433e-05
-7.1713e-05
3.21429e-05
-7.07646e-05
3.67813e-05
-6.97394e-05
4.175e-05
-6.86435e-05
4.70477e-05
-6.75286e-05
5.26847e-05
-6.65262e-05
5.86898e-05
-6.589e-05
-6.59596e-05
6.51146e-05
6.46969e-07
-7.40256e-05
1.26078e-06
-8.4107e-05
1.78783e-06
-8.40333e-05
2.34899e-06
-8.32495e-05
3.01604e-06
-8.24559e-05
3.83661e-06
-8.16875e-05
4.84693e-06
-8.09323e-05
6.07725e-06
-8.01889e-05
7.55405e-06
-7.94659e-05
9.30104e-06
-7.87763e-05
1.13391e-05
-7.81314e-05
1.3686e-05
-7.7536e-05
1.63553e-05
-7.69848e-05
1.93556e-05
-7.64611e-05
2.26907e-05
-7.59377e-05
2.6359e-05
-7.53814e-05
3.03553e-05
-7.47609e-05
3.46729e-05
-7.4057e-05
3.93079e-05
-7.32785e-05
4.42636e-05
-7.24844e-05
4.95559e-05
-7.18185e-05
5.52173e-05
-7.15514e-05
-7.20403e-05
6.1298e-05
7.61924e-07
-7.47876e-05
1.42929e-06
-8.47745e-05
1.99638e-06
-8.46005e-05
2.58255e-06
-8.38357e-05
3.25515e-06
-8.31284e-05
4.05874e-06
-8.2491e-05
5.02762e-06
-8.19011e-05
6.19073e-06
-8.1352e-05
7.57365e-06
-8.08489e-05
9.19942e-06
-8.04022e-05
1.10884e-05
-8.00204e-05
1.3258e-05
-7.97055e-05
1.57216e-05
-7.94485e-05
1.84886e-05
-7.92281e-05
2.15634e-05
-7.90125e-05
2.49459e-05
-7.8764e-05
2.86327e-05
-7.84477e-05
3.26193e-05
-7.80437e-05
3.69047e-05
-7.7564e-05
4.14959e-05
-7.70757e-05
4.64124e-05
-7.6735e-05
5.16888e-05
-7.68278e-05
-7.77239e-05
5.73724e-05
8.55619e-07
-7.56433e-05
1.54899e-06
-8.54679e-05
2.14356e-06
-8.51951e-05
2.75189e-06
-8.4444e-05
3.43351e-06
-8.381e-05
4.22748e-06
-8.32849e-05
5.16432e-06
-8.2838e-05
6.27023e-06
-8.2458e-05
7.56886e-06
-8.21476e-05
9.08169e-06
-8.19151e-05
1.0828e-05
-8.17668e-05
1.28245e-05
-8.17019e-05
1.50845e-05
-8.17085e-05
1.76178e-05
-8.17615e-05
2.04297e-05
-8.18245e-05
2.35214e-05
-8.18558e-05
2.68908e-05
-8.18171e-05
3.05354e-05
-8.16883e-05
3.44562e-05
-8.14849e-05
3.8663e-05
-8.12825e-05
4.31778e-05
-8.12498e-05
4.80372e-05
-8.16872e-05
-8.29722e-05
5.32855e-05
9.21022e-07
-7.65644e-05
1.61362e-06
-8.61606e-05
2.21976e-06
-8.58012e-05
2.84238e-06
-8.50666e-05
3.53089e-06
-8.44984e-05
4.31705e-06
-8.40711e-05
5.22609e-06
-8.37471e-05
6.28028e-06
-8.35123e-05
7.50026e-06
-8.33677e-05
8.9052e-06
-8.332e-05
1.05126e-05
-8.33742e-05
1.23382e-05
-8.35275e-05
1.4395e-05
-8.37653e-05
1.66929e-05
-8.40595e-05
1.92384e-05
-8.437e-05
2.20336e-05
-8.4651e-05
2.50779e-05
-8.48615e-05
2.83705e-05
-8.49809e-05
3.19141e-05
-8.50286e-05
3.57208e-05
-8.50891e-05
3.98154e-05
-8.53444e-05
4.42368e-05
-8.61087e-05
-8.77631e-05
4.90276e-05
9.5797e-07
-7.75224e-05
1.6252e-06
-8.68278e-05
2.22506e-06
-8.6401e-05
2.85065e-06
-8.56921e-05
3.54004e-06
-8.51878e-05
4.31634e-06
-8.48474e-05
5.19821e-06
-8.46291e-05
6.20296e-06
-8.45172e-05
7.34729e-06
-8.45122e-05
8.64732e-06
-8.46201e-05
1.01183e-05
-8.48452e-05
1.17742e-05
-8.51834e-05
1.36276e-05
-8.56187e-05
1.56884e-05
-8.61204e-05
1.79639e-05
-8.66456e-05
2.04576e-05
-8.71447e-05
2.31703e-05
-8.75742e-05
2.61026e-05
-8.79133e-05
2.92595e-05
-8.81855e-05
3.26551e-05
-8.84847e-05
3.63177e-05
-8.9007e-05
4.02898e-05
-9.00808e-05
-9.20887e-05
4.46154e-05
9.72871e-07
-7.84953e-05
1.59102e-06
-8.74459e-05
2.16573e-06
-8.69757e-05
2.78122e-06
-8.63075e-05
3.46345e-06
-8.58699e-05
4.22567e-06
-8.56096e-05
5.07888e-06
-8.54824e-05
6.03451e-06
-8.54729e-05
7.10466e-06
-8.55823e-05
8.30178e-06
-8.58172e-05
9.6382e-06
-8.61816e-05
1.11259e-05
-8.66712e-05
1.27762e-05
-8.7269e-05
1.45991e-05
-8.79433e-05
1.66023e-05
-8.86488e-05
1.87907e-05
-8.93331e-05
2.11668e-05
-8.99503e-05
2.37332e-05
-9.04797e-05
2.64967e-05
-9.0949e-05
2.94744e-05
-9.14623e-05
3.26983e-05
-9.2231e-05
3.62165e-05
-9.3599e-05
-9.5951e-05
4.00788e-05
9.75791e-07
-7.94711e-05
1.51959e-06
-8.79897e-05
2.0503e-06
-8.75063e-05
2.64299e-06
-8.69001e-05
3.31001e-06
-8.65369e-05
4.05337e-06
-8.6353e-05
4.87557e-06
-8.63046e-05
5.78157e-06
-8.6379e-05
6.77846e-06
-8.65792e-05
7.87454e-06
-8.69132e-05
9.07883e-06
-8.73858e-05
1.04007e-05
-8.7993e-05
1.18498e-05
-8.87181e-05
1.34355e-05
-8.9529e-05
1.5166e-05
-9.03793e-05
1.70475e-05
-9.12147e-05
1.90845e-05
-9.19874e-05
2.12815e-05
-9.26768e-05
2.3648e-05
-9.33155e-05
2.62035e-05
-9.40179e-05
2.89851e-05
-9.50126e-05
3.20478e-05
-9.66618e-05
-9.93548e-05
3.54517e-05
9.75016e-07
-8.0446e-05
1.41655e-06
-8.84312e-05
1.8867e-06
-8.79764e-05
2.44675e-06
-8.746e-05
3.0923e-06
-8.71823e-05
3.81276e-06
-8.70734e-05
4.60168e-06
-8.70935e-05
5.45749e-06
-8.72348e-05
6.38215e-06
-8.75039e-05
7.37971e-06
-8.79108e-05
8.45545e-06
-8.84615e-05
9.61569e-06
-8.91532e-05
1.08677e-05
-8.99701e-05
1.22198e-05
-9.08811e-05
1.36801e-05
-9.18397e-05
1.52562e-05
-9.27909e-05
1.69545e-05
-9.36857e-05
1.87818e-05
-9.45042e-05
2.07497e-05
-9.52834e-05
2.28809e-05
-9.61492e-05
2.5217e-05
-9.73488e-05
2.78212e-05
-9.9266e-05
-0.0001023
3.0767e-05
9.71789e-07
-8.14178e-05
1.28293e-06
-8.87424e-05
1.68204e-06
-8.83754e-05
2.20449e-06
-8.79823e-05
2.82508e-06
-8.78028e-05
3.51987e-06
-8.77681e-05
4.27374e-06
-8.78473e-05
5.07907e-06
-8.80401e-05
5.93306e-06
-8.83578e-05
6.83559e-06
-8.88133e-05
7.78807e-06
-8.9414e-05
8.79326e-06
-9.01584e-05
9.85553e-06
-9.10324e-05
1.09812e-05
-9.20068e-05
1.21781e-05
-9.30367e-05
1.34545e-05
-9.40674e-05
1.48188e-05
-9.505e-05
1.62798e-05
-9.59652e-05
1.7851e-05
-9.68546e-05
1.95572e-05
-9.78555e-05
2.14434e-05
-9.9235e-05
2.35803e-05
-0.000101403
-0.000104777
2.60566e-05
9.57034e-07
-8.23749e-05
1.11719e-06
-8.89025e-05
1.44471e-06
-8.87029e-05
1.93e-06
-8.84674e-05
2.52462e-06
-8.83973e-05
3.19183e-06
-8.84352e-05
3.90908e-06
-8.85645e-05
4.66378e-06
-8.87947e-05
5.44915e-06
-8.91432e-05
6.26125e-06
-8.96254e-05
7.09763e-06
-9.02504e-05
7.95718e-06
-9.10179e-05
8.84079e-06
-9.1916e-05
9.75216e-06
-9.29182e-05
1.06979e-05
-9.39824e-05
1.16865e-05
-9.50561e-05
1.27277e-05
-9.60912e-05
1.38318e-05
-9.70693e-05
1.50129e-05
-9.80359e-05
1.62961e-05
-9.91387e-05
1.77269e-05
-0.000100666
1.93801e-05
-0.000103056
-0.000106755
2.13587e-05
9.17457e-07
-8.32924e-05
9.20424e-07
-8.89055e-05
1.18688e-06
-8.89693e-05
1.6393e-06
-8.89198e-05
2.20789e-06
-8.89658e-05
2.84542e-06
-8.90727e-05
3.52399e-06
-8.92431e-05
4.22764e-06
-8.94983e-05
4.94658e-06
-8.98621e-05
5.67367e-06
-9.03525e-05
6.40285e-06
-9.09796e-05
7.12911e-06
-9.17442e-05
7.84947e-06
-9.26364e-05
8.56435e-06
-9.36331e-05
9.27822e-06
-9.46963e-05
9.99902e-06
-9.5777e-05
1.07366e-05
-9.68288e-05
1.15018e-05
-9.78345e-05
1.23077e-05
-9.88419e-05
1.31764e-05
-0.000100007
1.41487e-05
-0.000101638
1.52978e-05
-0.000104205
-0.000108193
1.67355e-05
8.45549e-07
-8.41379e-05
7.01552e-07
-8.87615e-05
9.25086e-07
-8.91927e-05
1.34947e-06
-8.93441e-05
1.89092e-06
-8.95072e-05
2.49538e-06
-8.96771e-05
3.13213e-06
-8.98798e-05
3.78354e-06
-9.01497e-05
4.43797e-06
-9.05165e-05
5.08585e-06
-9.10004e-05
5.71803e-06
-9.16118e-05
6.32593e-06
-9.23521e-05
6.9027e-06
-9.32132e-05
7.44503e-06
-9.41754e-05
7.95438e-06
-9.52057e-05
8.43681e-06
-9.62594e-05
8.90128e-06
-9.72933e-05
9.35746e-06
-9.82907e-05
9.8156e-06
-9.93001e-05
1.02907e-05
-0.000100483
1.08128e-05
-0.00010216
1.14431e-05
-0.000104835
-0.000109042
1.22923e-05
7.4386e-07
-8.48818e-05
4.77887e-07
-8.84955e-05
6.76975e-07
-8.93918e-05
1.07544e-06
-8.97425e-05
1.58658e-06
-9.00183e-05
2.15294e-06
-9.02434e-05
2.74345e-06
-9.04702e-05
3.3405e-06
-9.07467e-05
3.93174e-06
-9.11078e-05
4.50606e-06
-9.15748e-05
5.05207e-06
-9.21579e-05
5.55833e-06
-9.28583e-05
6.01456e-06
-9.36694e-05
6.41366e-06
-9.45745e-05
6.75339e-06
-9.55453e-05
7.03681e-06
-9.65427e-05
7.27076e-06
-9.75272e-05
7.46262e-06
-9.84826e-05
7.61785e-06
-9.94554e-05
7.7409e-06
-0.000100606
7.84318e-06
-0.000102262
7.96211e-06
-0.000104954
-0.00010927
8.19024e-06
6.25419e-07
-8.55072e-05
2.66913e-07
-8.8137e-05
4.54431e-07
-8.95792e-05
8.25952e-07
-9.0114e-05
1.30216e-06
-9.04944e-05
1.8245e-06
-9.07656e-05
2.36375e-06
-9.10094e-05
2.90375e-06
-9.12868e-05
3.43253e-06
-9.16367e-05
3.93843e-06
-9.20808e-05
4.40888e-06
-9.26283e-05
4.83062e-06
-9.328e-05
5.19087e-06
-9.40296e-05
5.47924e-06
-9.48628e-05
5.68974e-06
-9.57558e-05
5.82192e-06
-9.66749e-05
5.87977e-06
-9.7585e-05
5.86778e-06
-9.84706e-05
5.78564e-06
-9.93732e-05
5.62477e-06
-0.000100445
5.37171e-06
-0.000102009
5.02654e-06
-0.000104609
-0.000108886
4.64255e-06
4.98201e-07
-8.60054e-05
8.19199e-08
-8.77206e-05
2.56384e-07
-8.97537e-05
5.98311e-07
-9.04559e-05
1.03725e-06
-9.09333e-05
1.51123e-06
-9.12396e-05
1.99511e-06
-9.14933e-05
2.47573e-06
-9.17674e-05
2.94254e-06
-9.21035e-05
3.38436e-06
-9.25226e-05
3.78861e-06
-9.30326e-05
4.14152e-06
-9.36329e-05
4.42912e-06
-9.43171e-05
4.63902e-06
-9.50727e-05
4.76246e-06
-9.58791e-05
4.79592e-06
-9.67083e-05
4.74066e-06
-9.75297e-05
4.59834e-06
-9.83283e-05
4.3634e-06
-9.91382e-05
4.01451e-06
-0.000100096
3.51101e-06
-0.000101506
2.80578e-06
-0.000103904
-0.000107971
1.89068e-06
2.72478e-07
-8.62779e-05
-1.05006e-07
-8.73431e-05
2.65351e-08
-8.98852e-05
3.74067e-07
-9.08034e-05
7.84848e-07
-9.13441e-05
1.21062e-06
-9.16653e-05
1.63765e-06
-9.19203e-05
2.05788e-06
-9.21877e-05
2.46332e-06
-9.2509e-05
2.84435e-06
-9.29036e-05
3.18951e-06
-9.33777e-05
3.48595e-06
-9.39293e-05
3.72025e-06
-9.45514e-05
3.87995e-06
-9.52323e-05
3.95534e-06
-9.59544e-05
3.94125e-06
-9.66941e-05
3.83703e-06
-9.74254e-05
3.64266e-06
-9.81339e-05
3.34975e-06
-9.88453e-05
2.9286e-06
-9.96744e-05
2.31618e-06
-0.000100893
1.41794e-06
-0.000103005
-0.000106703
1.50038e-07
-2.22678e-07
-8.60552e-05
-4.23982e-07
-8.71418e-05
-2.18856e-07
-9.00903e-05
1.52279e-07
-9.11745e-05
5.40927e-07
-9.17327e-05
9.21014e-07
-9.20454e-05
1.29226e-06
-9.22915e-05
1.65257e-06
-9.2548e-05
1.99741e-06
-9.28538e-05
2.31965e-06
-9.32258e-05
2.61009e-06
-9.36681e-05
2.85814e-06
-9.41773e-05
3.05268e-06
-9.4746e-05
3.18314e-06
-9.53628e-05
3.2409e-06
-9.60121e-05
3.22095e-06
-9.66741e-05
3.12243e-06
-9.73269e-05
2.94584e-06
-9.79573e-05
2.68412e-06
-9.85835e-05
2.30698e-06
-9.92971e-05
1.74124e-06
-0.000100327