/*--------------------------------*- C++ -*----------------------------------*\
| =========                 |                                                 |
| \\      /  F ield         | OpenFOAM: The Open Source CFD Toolbox           |
|  \\    /   O peration     | Version:  v2012                                 |
|   \\  /    A nd           | Website:  www.openfoam.com                      |
|    \\/     M anipulation  |                                                 |
\*---------------------------------------------------------------------------*/
FoamFile
{
    version     2.0;
    format      ascii;
    class       surfaceScalarField;
    location    "0.7";
    object      alphaPhi0.water;
}
// * * * * * * * * * * * * * * * * * * * * * * * * * * * * * * * * * * * * * //

dimensions      [0 3 -1 0 0 0 0];
oriented        oriented;


internalField   nonuniform List<scalar> 
4432
(
-5.12642e-06
5.12642e-06
-8.61017e-06
3.48375e-06
-9.4294e-06
8.19232e-07
-9.09567e-06
-3.33737e-07
-8.60907e-06
-4.86595e-07
-8.28899e-06
-3.20086e-07
-8.18705e-06
-1.01939e-07
-8.24599e-06
5.89528e-08
-8.39908e-06
1.53084e-07
-8.56664e-06
1.67568e-07
-8.69395e-06
1.27312e-07
-8.75729e-06
6.33267e-08
-8.74505e-06
-1.22305e-08
-8.67259e-06
-7.24602e-08
-8.57343e-06
-9.91593e-08
-8.53994e-06
-3.34932e-08
-8.71817e-06
1.78235e-07
-9.2838e-06
5.6569e-07
-1.02264e-05
1.07256e-06
-1.12049e-05
1.40849e-06
-1.16752e-05
3.60166e-07
-8.71035e-06
-3.25882e-06
-8.75539e-06
-4.835e-06
9.96141e-06
-6.74043e-06
5.38918e-06
-7.15696e-06
1.23576e-06
-7.10071e-06
-3.89997e-07
-6.992e-06
-5.95305e-07
-7.01425e-06
-2.97821e-07
-7.19733e-06
8.11383e-08
-7.49745e-06
3.59077e-07
-7.8471e-06
5.02744e-07
-8.18685e-06
5.07305e-07
-8.47338e-06
4.13851e-07
-8.68336e-06
2.73301e-07
-8.81156e-06
1.15975e-07
-8.85596e-06
-2.80689e-08
-8.83396e-06
-1.21147e-07
-8.78179e-06
-8.56703e-08
-8.77078e-06
1.6723e-07
-8.85588e-06
6.50792e-07
-8.98387e-06
1.2049e-06
-8.52488e-06
1.27336e-06
-7.4508e-06
-5.48723e-07
-5.5854e-06
-5.20624e-06
-1.43848e-05
-3.54665e-06
1.35081e-05
-4.79904e-06
6.64156e-06
-5.29849e-06
1.73522e-06
-5.52937e-06
-1.59114e-07
-5.74419e-06
-3.80492e-07
-6.06677e-06
2.47638e-08
-6.49648e-06
5.10851e-07
-6.99427e-06
8.56865e-07
-7.50402e-06
1.0125e-06
-7.97831e-06
9.81594e-07
-8.38317e-06
8.18712e-07
-8.6985e-06
5.8862e-07
-8.91671e-06
3.34201e-07
-9.03214e-06
8.73546e-08
-9.04287e-06
-1.10417e-07
-8.95041e-06
-1.78134e-07
-8.76429e-06
-1.88827e-08
-8.4652e-06
3.517e-07
-7.92471e-06
6.64401e-07
-6.90992e-06
2.63684e-07
-5.15986e-06
-2.12696e-06
-3.21036e-06
-7.47678e-06
-1.7639e-05
-2.19416e-06
1.57022e-05
-3.06993e-06
7.51733e-06
-3.64592e-06
2.3112e-06
-4.12641e-06
3.21376e-07
-4.65379e-06
1.4689e-07
-5.27136e-06
6.42343e-07
-5.94671e-06
1.18619e-06
-6.63824e-06
1.54839e-06
-7.30044e-06
1.6747e-06
-7.89786e-06
1.579e-06
-8.40594e-06
1.3268e-06
-8.80827e-06
9.90947e-07
-9.09749e-06
6.2342e-07
-9.2647e-06
2.54566e-07
-9.29449e-06
-8.06222e-08
-9.16605e-06
-3.06576e-07
-8.85971e-06
-3.25222e-07
-8.3246e-06
-1.83416e-07
-7.41852e-06
-2.41683e-07
-5.96978e-06
-1.18505e-06
-4.00782e-06
-4.07946e-06
-1.78217e-06
-9.98563e-06
-1.94309e-05
-8.08541e-07
1.65108e-05
-1.3959e-06
8.10469e-06
-2.09446e-06
3.00977e-06
-2.8486e-06
1.07551e-06
-3.69833e-06
9.96617e-07
-4.61274e-06
1.55675e-06
-5.53085e-06
2.1043e-06
-6.41006e-06
2.4276e-06
-7.21783e-06
2.48247e-06
-7.93068e-06
2.29185e-06
-8.53291e-06
1.92904e-06
-9.01094e-06
1.46897e-06
-9.35883e-06
9.71306e-07
-9.56603e-06
4.6177e-07
-9.60768e-06
-3.89755e-08
-9.44838e-06
-4.65874e-07
-9.05936e-06
-7.14237e-07
-8.38864e-06
-8.54144e-07
-7.31105e-06
-1.31926e-06
-5.68809e-06
-2.80801e-06
-3.55152e-06
-6.21604e-06
-1.1181e-06
-1.2419e-05
-2.05511e-05
6.08527e-07
1.59022e-05
1.99535e-07
8.51368e-06
-6.51985e-07
3.8613e-06
-1.72072e-06
2.14425e-06
-2.90859e-06
2.18448e-06
-4.11537e-06
2.76354e-06
-5.26306e-06
3.25199e-06
-6.31674e-06
3.48127e-06
-7.25856e-06
3.42429e-06
-8.07724e-06
3.11053e-06
-8.76407e-06
2.61587e-06
-9.30655e-06
2.01144e-06
-9.70145e-06
1.36621e-06
-9.93874e-06
6.99056e-07
-9.98658e-06
8.8682e-09
-9.80044e-06
-6.52016e-07
-9.35698e-06
-1.15769e-06
-8.6248e-06
-1.58633e-06
-7.51063e-06
-2.43344e-06
-5.91024e-06
-4.4084e-06
-3.78653e-06
-8.33975e-06
-1.13804e-06
-1.50672e-05
-2.16849e-05
1.79736e-06
1.41049e-05
1.65678e-06
8.65427e-06
6.18242e-07
4.89983e-06
-8.08016e-07
3.5705e-06
-2.33427e-06
3.71073e-06
-3.81302e-06
4.24228e-06
-5.16257e-06
4.60153e-06
-6.36716e-06
4.68587e-06
-7.42584e-06
4.48297e-06
-8.33727e-06
4.02196e-06
-9.09659e-06
3.37519e-06
-9.68972e-06
2.60457e-06
-1.01183e-05
1.7948e-06
-1.03754e-05
9.56099e-07
-1.04232e-05
5.67045e-08
-1.02112e-05
-8.63992e-07
-9.73261e-06
-1.63629e-06
-8.99152e-06
-2.32742e-06
-7.93894e-06
-3.48602e-06
-6.52641e-06
-5.82093e-06
-4.72778e-06
-1.01384e-05
-2.22454e-06
-1.75693e-05
-2.39107e-05
2.70002e-06
1.14049e-05
2.9302e-06
8.42409e-06
1.62025e-06
6.20978e-06
-1.9144e-07
5.3822e-06
-2.03553e-06
5.55482e-06
-3.7363e-06
5.94306e-06
-5.23702e-06
6.10225e-06
-6.5561e-06
6.00494e-06
-7.70928e-06
5.63615e-06
-8.69619e-06
5.00886e-06
-9.51365e-06
4.19266e-06
-1.01394e-05
3.23031e-06
-1.05855e-05
2.24089e-06
-1.08507e-05
1.22127e-06
-1.08909e-05
9.6943e-08
-1.06498e-05
-1.10507e-06
-1.01456e-05
-2.14053e-06
-9.42702e-06
-3.04597e-06
-8.49636e-06
-4.41668e-06
-7.40165e-06
-6.91565e-06
-6.36694e-06
-1.11731e-05
-5.47997e-06
-1.84553e-05
-2.93931e-05
1.36581e-06
-4.95502e-06
-6.15033e-05
6.20503e-05
-0.000116136
5.46365e-05
-0.000135934
1.97891e-05
-0.000133535
-2.41925e-06
-0.000127876
-5.74565e-06
-0.000125345
-1.92025e-06
-0.000125537
8.07641e-07
-0.000126184
6.09276e-07
-0.000125411
-8.17438e-07
-0.000122515
-2.96207e-06
-0.000117156
-6.4322e-06
-0.000105948
-1.16353e-05
-8.68834e-05
-1.85269e-05
-6.15456e-05
-2.44864e-05
-3.56749e-05
-2.58125e-05
-1.23596e-05
-2.39635e-05
3.86656e-06
-1.6665e-05
3.75381e-06
-5.40196e-05
3.91854e-05
-0.000115062
0.000120679
-0.000130577
7.01549e-05
-0.000128362
8.54371e-06
-0.000127617
-7.70511e-06
-0.000122568
-1.23968e-05
-0.000120473
-4.10649e-06
-0.000120726
1.04395e-06
-0.000120312
1.99745e-07
-0.000118741
-2.38251e-06
-0.00011605
-5.64686e-06
-0.000111008
-1.14673e-05
-0.000101643
-2.09916e-05
-8.59803e-05
-3.4181e-05
-6.47793e-05
-4.56674e-05
-4.17278e-05
-4.82789e-05
-2.14472e-05
-4.25587e-05
-5.84282e-06
-3.16926e-05
-1.78936e-06
-6.48436e-05
9.73126e-05
-6.03591e-05
0.000106492
-1.66804e-05
1.51212e-05
-1.36742e-05
9.04765e-07
-3.78382e-05
-5.57221e-06
-7.87987e-05
-5.05158e-07
-0.000100645
1.59902e-06
-0.000110762
4.0312e-06
-0.000113222
2.77836e-07
-0.000110884
-4.71913e-06
-0.000107663
-8.86123e-06
-0.000103063
-1.606e-05
-9.53282e-05
-2.87194e-05
-8.20535e-05
-4.74394e-05
-6.3553e-05
-6.41552e-05
-4.32285e-05
-6.80847e-05
-2.46692e-05
-5.94343e-05
-1.0316e-05
-4.43262e-05
-1.1491e-05
-4.19439e-05
0.000131754
-1.25924e-05
6.98653e-05
-2.98772e-06
5.60474e-06
-1.80117e-06
-2.32451e-06
-7.28307e-07
-1.08128e-05
-2.49654e-06
-2.90462e-06
-5.59159e-06
-4.88738e-08
-3.07156e-05
6.3125e-06
-7.0173e-05
3.62744e-06
-9.28198e-05
-1.3923e-06
-9.8913e-05
-9.2691e-06
-9.48173e-05
-2.08603e-05
-8.8233e-05
-3.53069e-05
-7.67991e-05
-5.88602e-05
-6.02946e-05
-8.06465e-05
-4.29573e-05
-8.54134e-05
-2.53377e-05
-7.77426e-05
-1.13762e-05
-5.82895e-05
-2.2869e-05
-1.78396e-05
0.000142057
-7.54413e-07
2.61869e-05
1.94964e-06
3.44752e-06
1.76905e-05
-1.48562e-05
3.87385e-05
-4.70443e-05
3.1892e-05
-2.5397e-05
1.06996e-05
1.00791e-05
1.29365e-06
9.49886e-06
-3.48767e-06
1.90846e-06
-9.81261e-06
5.46011e-07
-4.47213e-05
-1.7025e-06
-7.68241e-05
-8.61667e-06
-7.97418e-05
-3.79389e-05
-7.02091e-05
-6.83631e-05
-5.5244e-05
-9.5605e-05
-3.97781e-05
-0.00010085
-2.57877e-05
-9.16843e-05
-1.15122e-05
-7.25242e-05
-3.43829e-05
1.51803e-07
0.000134232
6.1118e-06
3.1072e-05
2.10079e-05
-2.37301e-08
6.03206e-05
-4.50236e-05
7.46345e-05
-5.6324e-05
8.88509e-05
-3.62341e-05
5.45579e-05
8.46695e-07
1.27649e-05
3.17501e-05
2.67016e-06
9.65709e-06
-4.61827e-07
1.97742e-06
-4.12035e-06
4.63205e-07
-1.55617e-05
-1.12248e-06
-5.95969e-05
-1.35335e-05
-6.23096e-05
-7.18183e-05
-4.87856e-05
-0.000109065
-3.52152e-05
-0.000114365
-2.31938e-05
-0.000103638
-1.07001e-05
-8.47899e-05
-4.50847e-05
1.37478e-05
7.50081e-05
1.9878e-05
3.37305e-05
5.41258e-05
-9.72147e-06
6.7869e-05
-5.20519e-05
6.93964e-05
-5.15423e-05
7.42905e-05
-3.65045e-05
9.22665e-05
-1.66007e-05
2.74992e-05
4.16773e-05
6.92115e-06
1.96723e-05
1.37636e-06
6.1363e-06
-4.87172e-07
8.8839e-07
-2.20978e-06
3.95976e-08
-1.67544e-05
-3.22826e-06
-5.13313e-05
-5.30624e-05
-4.13316e-05
-0.000118965
-2.9922e-05
-0.000125699
-1.98436e-05
-0.00011359
-9.32429e-06
-9.5218e-05
-5.44111e-05
1.79514e-05
6.40505e-05
3.03295e-05
2.81326e-05
6.41905e-05
-2.19172e-05
6.26444e-05
-5.18309e-05
5.42022e-05
-4.42209e-05
5.08043e-05
-1.70105e-05
5.89176e-05
-1.64183e-05
3.77874e-05
1.18671e-05
4.42674e-06
2.70601e-05
1.71559e-06
7.41186e-06
-2.51781e-09
1.71684e-06
-6.92618e-07
3.06593e-07
-3.04416e-06
-1.42822e-06
-3.56885e-05
-3.40992e-05
-3.35837e-05
-0.000126688
-2.44555e-05
-0.000134766
-1.64265e-05
-0.000121534
-8.02404e-06
-0.000103374
-6.24452e-05
4.52175e-06
1.0999e-07
5.34127e-06
3.65716e-07
3.35335e-06
7.7497e-07
1.9388e-07
1.41073e-06
-3.10848e-06
2.15387e-06
-6.59127e-06
3.0503e-06
-1.02783e-05
4.12976e-06
-1.40726e-05
5.21426e-06
-1.75559e-05
5.98135e-06
-1.99198e-05
7.37272e-06
-2.17556e-05
6.02843e-06
-2.3102e-05
4.57676e-06
-2.40454e-05
3.18431e-06
-2.4595e-05
1.77079e-06
-2.46341e-05
1.36092e-07
-2.39943e-05
-1.74484e-06
-2.28214e-05
-3.31342e-06
-2.13919e-05
-4.47547e-06
-1.98339e-05
-5.97469e-06
-1.85492e-05
-8.20036e-06
-1.88042e-05
-1.09181e-05
-2.31175e-05
-1.41418e-05
-1.57298e-05
-3.67873e-05
6.22562e-09
2.11955e-15
3.09829e-08
1.74368e-10
9.79925e-09
1.05227e-10
-1.48256e-07
-1.93222e-09
-5.31347e-07
-5.32653e-09
-1.22178e-06
-1.06858e-08
-2.36614e-06
-1.66704e-08
-4.13463e-06
-1.93274e-08
-6.92311e-06
-3.72105e-08
-1.12174e-05
5.5388e-07
-1.61167e-05
1.56628e-06
-2.07269e-05
2.26036e-06
-2.42173e-05
2.33174e-06
-2.56164e-05
1.67439e-06
-2.55098e-05
2.95733e-08
-2.45481e-05
-2.7064e-06
-2.31058e-05
-4.75558e-06
-2.16615e-05
-5.91961e-06
-2.01602e-05
-7.47591e-06
-1.87513e-05
-9.60908e-06
-1.83418e-05
-1.13274e-05
-1.97575e-05
-1.2726e-05
-1.35228e-05
-2.19693e-05
-1.51532e-15
-1.73072e-14
1.79717e-10
-5.33899e-12
-1.64103e-10
2.46397e-11
-2.99319e-09
6.72935e-11
-9.45089e-09
5.76039e-11
-2.16098e-08
5.47972e-11
-4.00408e-08
3.06955e-11
-6.13874e-08
-3.27908e-11
-1.0111e-07
-3.10236e-10
-3.53117e-07
-3.57117e-09
-1.21129e-06
-8.66626e-09
-2.76112e-06
-6.99488e-09
-4.91044e-06
4.42611e-09
-8.19161e-06
4.37102e-10
-1.34427e-05
-2.07723e-07
-1.84723e-05
-1.02219e-06
-1.96978e-05
-1.96004e-06
-1.9155e-05
-3.69172e-06
-1.81377e-05
-6.58751e-06
-1.64445e-05
-1.00665e-05
-1.54504e-05
-1.18208e-05
-1.59006e-05
-1.22749e-05
-1.25165e-05
-1.69124e-05
-6.46517e-14
1.95429e-16
-6.22272e-12
-3.344e-15
7.97926e-12
1.05962e-12
4.78698e-11
2.69946e-12
7.11791e-11
2.27497e-12
8.24563e-11
2.96947e-12
6.03855e-11
3.55169e-12
-4.55521e-11
4.52835e-12
-4.75319e-10
8.98045e-12
-4.28845e-09
2.43335e-11
-1.31236e-08
7.79625e-12
-2.00993e-08
-1.79936e-11
-1.55417e-08
-1.34522e-11
-1.49981e-08
7.60786e-13
-2.35417e-08
-9.54346e-15
-2.59465e-07
-1.97237e-14
-1.48214e-06
-7.43229e-14
-3.30067e-06
-1.30682e-13
-5.01456e-06
-3.27351e-12
-5.71395e-06
-1.79785e-10
-6.56193e-06
-1.11039e-08
-8.32632e-06
-5.78008e-07
-3.07037e-06
-1.13204e-05
-2.97502e-15
-4.37885e-16
-2.175e-14
1.5674e-14
2.29868e-13
8.16534e-13
1.51835e-12
9.88156e-14
2.8732e-12
1.55385e-13
4.56668e-12
2.65066e-13
6.41226e-12
4.20562e-13
8.58443e-12
6.84212e-13
1.35571e-11
1.3004e-12
2.8838e-11
2.98478e-12
2.95635e-11
8.02477e-13
1.18462e-11
-4.92462e-13
-9.84197e-13
-8.82251e-13
-1.60536e-16
-2.14228e-13
-5.78591e-16
-2.42053e-17
-1.75462e-15
-5.00837e-16
-3.52639e-15
-5.34207e-14
-7.2403e-14
-5.67956e-14
-3.35231e-12
6.40024e-15
-1.83146e-10
8.97509e-15
-1.12869e-08
-3.41174e-13
-5.89283e-07
-1.71704e-11
-6.90329e-10
-1.24169e-06
2.37512e-16
-1.37531e-16
-2.26345e-16
-1.29509e-15
-5.97566e-15
-1.15204e-14
4.55895e-14
5.0297e-14
9.8537e-14
1.04244e-13
1.83864e-13
1.83092e-13
3.0831e-13
3.01268e-13
5.04151e-13
4.91473e-13
8.78131e-13
9.2446e-13
1.5099e-12
2.36216e-12
1.80417e-12
3.7772e-13
1.16618e-12
9.96926e-15
2.90035e-13
-1.34903e-14
2.36034e-14
5.22041e-14
8.34685e-16
2.27445e-14
7.05008e-15
2.66498e-14
-1.62395e-15
8.03998e-15
1.86963e-15
5.45315e-14
4.81496e-15
5.09074e-14
-5.79277e-15
2.93554e-14
-4.01155e-13
1.52587e-15
-1.75486e-11
-1.91186e-13
-1.94824e-12
-7.11378e-10
-5.69703e-18
-1.48505e-17
-6.67273e-17
-7.98199e-17
-6.12894e-15
-6.58206e-15
-2.91629e-14
-2.82904e-14
-7.54637e-14
-6.76981e-14
-1.43812e-13
-1.23124e-13
-2.24464e-13
-1.87906e-13
-3.06153e-13
-2.53314e-13
-3.52931e-13
-2.86125e-13
-2.23326e-13
-1.72735e-13
8.85409e-14
6.58527e-14
5.22451e-14
4.6265e-14
2.39808e-14
1.41999e-14
-2.42638e-13
-1.37623e-13
-3.51244e-13
-1.87553e-13
-2.83672e-13
-1.31729e-13
-1.53306e-13
-4.42299e-14
-4.1997e-14
1.91953e-14
4.63964e-15
4.96247e-14
1.64983e-15
3.04709e-14
-4.74654e-13
3.12505e-15
-7.69673e-13
1.06476e-13
4.77306e-12
-1.28239e-11
-2.95419e-18
-8.5865e-19
-6.5535e-18
-2.06949e-18
-1.56441e-15
-8.91407e-16
-8.40906e-15
-5.54682e-15
-2.45802e-14
-1.68778e-14
-5.3761e-14
-3.73988e-14
-9.88807e-14
-6.91051e-14
-1.62438e-13
-1.13146e-13
-2.43088e-13
-1.66281e-13
-3.22709e-13
-2.12009e-13
-3.489e-13
-2.15443e-13
-3.67772e-13
-2.11176e-13
-4.10642e-13
-2.19732e-13
-4.70173e-13
-2.3673e-13
-4.808e-13
-2.28267e-13
-4.15716e-13
-1.82097e-13
-3.11257e-13
-1.2147e-13
-1.85153e-13
-6.78644e-14
-5.35585e-14
-3.80448e-14
1.39217e-14
-3.29619e-14
-3.96556e-14
-2.92653e-14
4.27377e-14
2.40824e-14
2.84109e-13
3.58969e-12
-6.90954e-19
7.13839e-20
-1.1879e-18
4.49874e-20
-2.86826e-16
-5.15416e-17
-1.6058e-15
-6.2557e-16
-4.8796e-15
-2.40598e-15
-1.12149e-14
-6.148e-15
-2.20522e-14
-1.27545e-14
-3.9307e-14
-2.32758e-14
-6.49492e-14
-3.84396e-14
-9.87937e-14
-5.71414e-14
-1.32845e-13
-7.37332e-14
-1.61299e-13
-8.51501e-14
-1.85974e-13
-9.35143e-14
-2.02522e-13
-9.7844e-14
-2.0211e-13
-9.47963e-14
-1.74772e-13
-8.06497e-14
-1.25238e-13
-5.92831e-14
-6.94552e-14
-3.87465e-14
-2.8263e-14
-2.64155e-14
-4.67777e-15
-1.94291e-14
-4.92374e-16
-1.21727e-14
-2.84164e-14
1.5104e-15
1.30989e-14
3.57531e-14
-8.6496e-20
1.34251e-20
-1.55775e-19
2.57909e-20
-3.89612e-17
9.10897e-19
-2.24942e-16
-2.62243e-17
-6.85304e-16
-2.01833e-16
-1.58117e-15
-6.28573e-16
-3.1522e-15
-1.44656e-15
-5.77559e-15
-2.85313e-15
-9.91884e-15
-5.06144e-15
-1.59038e-14
-8.14768e-15
-2.30238e-14
-1.16179e-14
-2.9754e-14
-1.46573e-14
-3.512e-14
-1.69098e-14
-3.78552e-14
-1.79859e-14
-3.62367e-14
-1.72741e-14
-2.86218e-14
-1.40822e-14
-1.6601e-14
-8.92019e-15
-4.80748e-15
-3.15316e-15
1.40385e-14
1.01612e-14
1.2125e-14
2.31151e-14
5.11632e-15
3.13735e-14
-2.35808e-15
4.07708e-14
5.10386e-14
-3.84681e-16
-5.69e-21
1.33981e-21
-2.44736e-20
1.08054e-20
-3.56986e-18
1.69533e-19
-2.14838e-17
3.20766e-19
-6.50711e-17
-4.48973e-18
-1.46647e-16
-3.36143e-17
-2.85852e-16
-9.39199e-17
-5.14587e-16
-2.00875e-16
-8.62525e-16
-3.68444e-16
-1.33142e-15
-5.94833e-16
-1.77965e-15
-8.10194e-16
-2.17284e-15
-9.9592e-16
-2.03704e-15
-9.39524e-16
-1.27266e-15
-5.96102e-16
-8.5152e-17
-4.12585e-17
2.70585e-15
8.57106e-16
6.02924e-15
2.45598e-15
1.09408e-14
5.71173e-15
1.47704e-14
1.1452e-14
1.35045e-14
1.24611e-14
1.02817e-14
1.56823e-14
7.40744e-15
1.93293e-14
2.65317e-14
7.67751e-15
-2.69076e-22
3.82569e-22
-4.91092e-21
2.98102e-21
-1.94068e-19
1.8679e-20
-1.29052e-18
7.04432e-20
-4.07987e-18
8.56831e-20
-8.80039e-18
-2.33524e-19
-1.56609e-17
-2.74521e-18
-2.43788e-17
-6.61404e-18
-3.08606e-17
-1.02953e-17
-2.95602e-17
-1.10494e-17
8.09994e-17
1.25097e-17
4.28639e-16
1.12826e-16
1.04555e-15
3.58394e-16
1.27184e-15
5.82046e-16
1.39595e-15
6.77866e-16
1.39915e-15
6.78032e-16
1.29429e-15
2.66008e-16
1.71524e-15
2.15483e-16
2.1292e-15
2.90673e-16
2.04773e-15
3.07054e-16
2.31359e-15
5.34291e-16
2.4635e-15
8.8607e-16
1.47778e-15
3.20629e-15
-3.57651e-23
1.33894e-22
-7.19618e-22
1.14346e-21
-1.04008e-20
7.05952e-21
-8.9835e-20
2.56716e-20
-3.24606e-19
4.09721e-20
-6.2468e-19
2.69498e-20
-7.94674e-19
1.65598e-21
-3.635e-19
-4.58234e-20
1.43405e-18
1.26216e-19
9.98686e-18
2.18352e-18
1.59133e-17
2.10472e-18
3.8445e-17
1.65718e-18
1.08085e-16
4.29497e-18
1.61975e-16
9.95046e-18
1.72252e-16
1.24272e-17
1.22727e-16
1.01094e-17
6.55216e-17
5.95226e-18
5.46427e-17
5.59117e-18
6.60254e-17
1.05584e-17
7.83466e-17
2.00741e-17
1.23447e-16
3.2156e-17
1.90144e-16
5.0018e-17
8.58233e-17
3.24757e-16
-4.07255e-24
3.64502e-23
-1.43955e-22
3.22138e-22
-2.14597e-21
1.89151e-21
-1.63262e-20
6.38008e-21
-5.4814e-20
1.02935e-20
-9.23159e-20
7.58656e-21
-8.69883e-20
2.32486e-21
2.9955e-20
3.96156e-23
7.32894e-20
6.32365e-22
3.84018e-19
6.89639e-21
8.67486e-19
2.69786e-20
1.59317e-18
5.56541e-20
2.46942e-18
7.8235e-20
3.54472e-18
1.05247e-19
3.94459e-18
1.27893e-19
4.1214e-18
1.42414e-19
4.61024e-18
2.31215e-19
7.44186e-18
6.34255e-19
1.42522e-17
2.10068e-18
2.18528e-17
5.88001e-18
2.71727e-17
8.20059e-18
3.39133e-17
9.70757e-18
1.30185e-17
4.95804e-17
1.51347e-24
7.42723e-24
-1.86862e-23
6.49006e-23
-3.19783e-22
3.57441e-22
-2.28648e-21
1.10343e-21
-7.12934e-21
1.66307e-21
-1.02651e-20
1.10183e-21
-7.08855e-21
2.99714e-22
-5.54414e-22
-3.00185e-23
7.54359e-21
-8.31553e-23
3.85314e-20
1.69847e-22
8.20619e-20
1.6103e-21
1.21541e-19
3.63032e-21
1.5353e-19
5.68825e-21
1.7279e-19
6.45507e-21
1.64057e-19
5.9816e-21
1.46691e-19
4.27798e-21
1.67664e-19
5.36869e-21
3.33055e-19
1.04972e-20
9.61462e-19
3.82925e-20
2.27854e-18
1.69269e-19
3.17046e-18
3.63728e-19
3.99321e-18
5.72101e-19
1.09388e-18
5.75082e-18
1.15589e-24
1.08035e-24
-1.1739e-24
8.88557e-24
-3.25474e-23
4.501e-23
-2.32606e-22
1.25055e-22
-6.73772e-22
1.67914e-22
-8.07548e-22
9.05303e-23
-4.01759e-22
1.83235e-23
2.37417e-22
-1.95112e-24
5.78264e-22
-1.59457e-23
2.34898e-21
-2.66519e-23
5.01144e-21
-8.59258e-25
7.06718e-21
7.69857e-23
8.24287e-21
1.58063e-22
7.67012e-21
1.9472e-22
4.63942e-21
1.37938e-22
3.2885e-21
6.7776e-23
3.67766e-21
8.31982e-23
6.6759e-21
1.45591e-22
1.86883e-20
4.42371e-22
5.81969e-20
2.21707e-21
1.23379e-19
1.19587e-20
2.53952e-19
7.01674e-20
5.2473e-19
7.75951e-19
2.04808e-25
1.06401e-25
1.69622e-25
7.82917e-25
-2.0438e-24
3.49963e-24
-1.57263e-23
8.48787e-24
-4.2152e-23
9.97126e-24
-4.04297e-23
4.27885e-24
-1.39788e-23
1.43246e-26
9.88259e-24
-3.8923e-25
3.39238e-23
-1.17394e-24
1.09749e-22
-2.08532e-24
1.94106e-22
-1.98666e-24
2.53275e-22
-5.9137e-25
2.89696e-22
1.6075e-24
2.15153e-22
3.03296e-24
1.00977e-22
2.47547e-24
7.00577e-23
1.32937e-24
8.32145e-23
1.99032e-24
1.61783e-22
6.35871e-24
5.68563e-22
5.5766e-23
3.13185e-21
6.41419e-22
1.95259e-20
7.43616e-21
1.2582e-19
5.91449e-20
6.15751e-19
1.01355e-18
1.77728e-26
8.02894e-27
4.45012e-26
5.83581e-26
-6.95768e-26
2.42222e-25
-6.42782e-25
5.82412e-25
-1.61102e-24
8.00736e-25
-1.24255e-24
4.70824e-25
-6.94392e-27
2.88926e-26
2.93642e-25
-1.8765e-26
1.16182e-24
-4.75441e-26
3.13636e-24
-7.10301e-26
5.47998e-24
-1.00527e-25
7.1679e-24
-8.52933e-26
8.41715e-24
-3.45784e-26
6.62051e-24
2.60335e-26
3.17815e-24
4.82978e-26
2.17187e-24
3.79693e-26
3.05142e-24
1.36486e-25
1.52713e-23
1.82869e-24
1.54261e-22
2.91327e-23
1.66284e-21
4.11941e-22
1.78025e-20
6.20338e-21
1.85094e-19
8.61117e-20
1.34139e-18
2.1661e-18
1.09297e-27
9.08668e-28
3.41362e-27
8.38565e-27
-1.77235e-27
4.04068e-26
-2.73269e-26
1.12605e-25
-8.64958e-26
1.78423e-25
-9.3301e-26
1.02604e-25
-9.51082e-27
4.65032e-27
1.1466e-26
-1.50315e-27
2.69086e-26
-1.6466e-27
5.97366e-26
-1.85076e-27
1.29051e-25
-3.25341e-27
1.86011e-25
-3.55802e-27
2.27871e-25
-2.50854e-27
1.95138e-25
-9.00889e-28
9.27374e-26
1.632e-28
8.07504e-26
1.41322e-27
5.08111e-25
3.18757e-26
7.19695e-24
8.00019e-25
9.5479e-23
1.54108e-23
1.10048e-21
2.19174e-22
1.67746e-20
4.70669e-21
2.88983e-19
1.11789e-19
2.00525e-18
3.98404e-18
1.06985e-28
1.08892e-28
4.45656e-28
1.03046e-27
-1.20624e-28
5.28769e-27
-3.52514e-27
1.57103e-26
-1.35336e-26
2.58423e-26
-1.45112e-26
1.08857e-26
-1.09263e-27
-8.04754e-28
3.45483e-28
-1.75858e-28
5.19409e-28
-1.09898e-28
9.30651e-28
-9.35323e-29
2.5615e-27
-9.62224e-29
3.71568e-27
-7.95466e-29
4.54621e-27
-5.30163e-29
3.32278e-27
-2.63704e-29
2.15487e-27
-2.53729e-29
1.19342e-26
-1.02572e-29
2.18465e-25
7.12605e-27
3.46723e-24
2.42281e-25
4.76808e-23
4.99313e-24
5.83821e-22
7.92899e-23
1.3545e-20
2.80185e-21
3.75441e-19
1.13062e-19
2.26643e-18
5.64598e-18
6.33308e-30
6.68562e-30
3.08604e-29
6.38549e-29
-1.8086e-29
3.45848e-28
-3.7205e-28
1.07252e-27
-1.46433e-27
1.5975e-27
-1.14965e-27
-7.68612e-28
1.40766e-28
-3.27001e-28
1.71431e-29
-1.17289e-29
2.16629e-29
-6.67304e-30
2.86388e-29
-4.94363e-30
4.19064e-29
-3.10195e-30
4.83333e-29
-1.25848e-30
4.44864e-29
-2.76559e-31
4.30838e-29
-8.24695e-31
1.55984e-28
-1.34865e-29
3.96744e-27
-1.68787e-28
7.99688e-26
-7.36741e-28
1.35642e-24
3.1936e-26
1.99532e-23
1.13077e-24
2.52789e-22
2.16299e-23
8.85184e-21
1.24987e-21
4.07683e-19
9.2825e-20
2.00777e-18
6.53498e-18
1.23697e-32
7.29885e-33
7.28829e-32
2.28646e-32
-2.12281e-30
1.13917e-34
-2.20772e-29
-5.41999e-31
-7.22071e-29
-5.83963e-29
6.3304e-29
-2.80419e-28
1.91912e-29
-1.18737e-29
7.46395e-31
-1.95036e-31
8.75201e-31
-1.15785e-31
9.43041e-31
-1.24139e-31
7.2376e-31
-1.10701e-31
2.96593e-31
-5.5179e-32
1.76107e-31
-2.19022e-32
1.51047e-30
-2.8263e-31
4.76829e-29
-5.66954e-30
1.18509e-27
-9.34806e-29
2.50145e-26
-1.25616e-27
4.76599e-25
-8.72933e-27
7.2679e-24
1.02162e-25
9.38411e-23
4.13982e-24
4.73201e-21
4.1824e-22
3.01417e-19
4.51711e-20
1.34447e-18
5.64937e-18
-6.59636e-35
6.16612e-36
-1.31826e-34
1.49725e-35
-1.05959e-36
1.14152e-35
2.10965e-32
2.05048e-36
3.95607e-30
-3.72639e-37
1.8669e-29
-6.21245e-36
2.37654e-32
-2.01298e-35
9.71352e-33
-1.69279e-34
1.3774e-32
-3.34565e-34
2.08706e-32
-2.33028e-34
2.43384e-32
-1.22557e-34
1.18052e-32
-1.39527e-34
1.03075e-32
-2.74328e-33
4.00722e-31
-7.64289e-32
1.16829e-29
-1.75972e-30
2.98553e-28
-3.69485e-29
7.29166e-27
-6.70537e-28
1.50628e-25
-8.91581e-27
2.33244e-24
-5.89106e-26
3.10425e-23
1.97055e-25
2.16719e-21
9.75613e-23
1.87513e-19
1.86897e-20
7.32366e-19
4.14479e-18
-1.05858e-37
8.70504e-50
-1.57944e-37
8.17115e-48
-1.36866e-37
8.05302e-47
-3.91366e-38
1.14148e-50
4.84544e-38
-2.74584e-45
2.82948e-37
-3.39555e-40
1.41973e-36
-3.18636e-38
1.60866e-35
-3.27948e-37
3.11933e-35
-1.13089e-36
2.37661e-35
-2.0936e-36
2.19167e-35
-3.28504e-36
4.30033e-35
-2.09785e-35
1.96193e-33
-6.74922e-34
7.58452e-32
-1.87031e-32
2.39622e-30
-4.95826e-31
7.15414e-29
-1.20646e-29
1.94064e-27
-2.6189e-28
4.28417e-26
-4.23688e-27
6.64065e-25
-4.18459e-26
9.11087e-24
-2.67596e-25
9.51099e-22
3.2361e-24
1.15115e-19
6.40116e-21
3.63296e-19
2.90089e-18
-1.92106e-51
-3.82645e-54
-1.10451e-49
-6.10346e-57
-1.08473e-48
-1.35897e-60
-2.08305e-52
-1.67357e-56
7.8818e-47
-7.42334e-50
1.54657e-41
-2.0974e-43
2.13312e-39
-2.10865e-40
2.85042e-38
-5.45226e-39
1.17301e-37
-2.41595e-38
2.73299e-37
-5.08587e-38
6.30372e-37
-1.25781e-37
8.07492e-36
-3.50362e-36
3.72894e-34
-1.2521e-34
1.35347e-32
-4.07141e-33
4.77915e-31
-1.22574e-31
1.56437e-29
-3.40204e-30
4.65885e-28
-8.23994e-29
1.06866e-26
-1.4477e-27
1.674e-25
-1.65561e-26
2.4872e-24
-1.73323e-25
4.53891e-22
-2.27834e-23
7.16854e-20
4.10238e-22
1.359e-19
1.86508e-18
9.17064e-56
-1.67573e-56
8.88801e-62
-6.37235e-56
1.35253e-62
-4.21027e-59
5.56787e-58
1.97578e-56
1.81907e-51
-7.54755e-53
7.91328e-45
-3.73682e-46
1.18303e-41
-8.65876e-43
3.99712e-40
-2.8077e-41
2.07684e-39
-1.45674e-40
5.75268e-39
-5.12214e-40
2.2972e-38
-1.24701e-38
1.09927e-36
-5.83977e-37
5.13769e-35
-2.21085e-35
2.18327e-33
-8.02118e-34
8.54708e-32
-2.70428e-32
3.08944e-30
-8.25095e-31
9.74942e-29
-2.10561e-29
2.26002e-27
-3.82771e-28
3.67004e-26
-4.91556e-27
6.99504e-25
-9.5727e-26
2.48901e-22
-3.03902e-23
4.40768e-20
-2.26648e-21
2.22466e-20
1.14266e-18
3.98709e-58
-1.50084e-57
9.09314e-58
-4.24195e-56
5.22505e-61
-4.1311e-59
-2.8156e-58
-1.26678e-59
3.03484e-54
-1.47009e-52
1.13793e-47
-3.28935e-48
3.86104e-44
-1.79107e-46
1.64e-42
-9.01246e-45
1.07739e-41
-5.28318e-43
5.60011e-41
-3.23175e-41
2.22993e-39
-1.8419e-39
1.39288e-37
-8.02095e-38
6.82516e-36
-3.49247e-36
3.18516e-34
-1.41421e-34
1.37174e-32
-5.19903e-33
5.31317e-31
-1.6766e-31
1.709e-29
-4.29509e-30
3.95788e-28
-8.01059e-29
6.99927e-27
-1.25219e-27
2.51096e-25
-6.80351e-26
1.4624e-22
-3.07626e-23
2.50604e-20
-2.93784e-21
-2.56391e-20
6.61622e-19
1.71965e-59
-3.32812e-59
5.44824e-58
-3.1542e-58
1.17809e-61
-3.0466e-59
1.43984e-61
-1.78288e-59
4.60494e-54
-1.51738e-54
7.8253e-50
-1.31216e-49
6.43216e-48
-1.71338e-47
4.71744e-46
-1.05469e-45
3.88779e-44
-6.96863e-44
3.2769e-42
-4.11315e-42
2.51339e-40
-2.01137e-40
1.41223e-38
-1.0115e-38
7.93494e-37
-4.91493e-37
4.08779e-35
-2.17327e-35
1.89067e-33
-8.42864e-34
7.59362e-32
-2.76207e-32
2.40006e-30
-6.76529e-31
5.62198e-29
-1.27403e-29
1.23247e-27
-3.39126e-28
1.25239e-25
-5.6461e-26
8.5116e-23
-2.7355e-23
1.32183e-20
-2.59723e-21
-3.44187e-20
3.43433e-19
3.40454e-61
-1.00172e-60
1.75226e-60
-1.52203e-61
1.33783e-61
-1.13492e-61
1.50289e-61
-8.49117e-62
3.46906e-56
-9.47956e-54
2.35941e-51
-7.64631e-51
4.66363e-49
-7.68952e-49
4.20975e-47
-7.45313e-47
3.89229e-45
-5.38549e-45
3.06974e-43
-3.32298e-43
1.95992e-41
-2.0078e-41
1.281e-39
-1.12834e-39
7.93858e-38
-5.94695e-38
4.42129e-36
-2.84146e-36
2.13231e-34
-1.14247e-34
8.54158e-33
-3.43613e-33
2.53623e-31
-6.90664e-32
6.01427e-30
-1.31379e-30
2.36743e-28
-1.1075e-28
6.87906e-26
-4.09307e-26
4.6551e-23
-2.13531e-23
6.27828e-21
-1.80283e-21
-2.36683e-20
1.47208e-19
9.26912e-63
-2.70824e-62
4.55776e-64
-3.80782e-65
2.93861e-64
-2.88728e-65
2.77534e-64
-2.19798e-62
1.4399e-55
-4.92162e-55
9.42851e-53
-4.38529e-52
1.43756e-50
-5.214e-50
2.03255e-48
-4.397e-48
2.04145e-46
-3.54024e-46
1.6958e-44
-2.70874e-44
1.34673e-42
-1.79561e-42
9.68686e-41
-1.04944e-40
6.45875e-39
-6.17772e-39
3.86836e-37
-3.50318e-37
1.91571e-35
-1.53439e-35
6.76294e-34
-2.13313e-34
1.61463e-32
-5.25343e-34
4.02701e-31
-1.01276e-31
4.93256e-29
-1.6004e-29
3.00964e-26
-2.18938e-26
2.19828e-23
-1.34174e-23
2.46511e-21
-9.30808e-22
-1.04498e-20
4.76103e-20
2.34008e-64
-5.1855e-64
7.95835e-68
1.86556e-65
6.96024e-68
1.41015e-66
8.25004e-65
-7.24346e-64
2.16342e-57
-1.57042e-56
3.25209e-54
-1.80879e-53
6.19383e-52
-2.28689e-51
7.71523e-50
-2.35194e-49
8.67225e-48
-2.13967e-47
8.85645e-46
-1.72946e-45
7.56105e-44
-1.24494e-43
5.57938e-42
-8.20838e-42
4.18631e-40
-8.27336e-40
2.90192e-38
-4.14583e-38
1.45685e-36
-3.1475e-37
1.97891e-35
-5.32466e-37
6.50253e-35
-8.82838e-35
1.9181e-32
-9.39444e-33
3.91702e-30
-1.08846e-30
8.85174e-27
-7.63275e-27
7.70182e-24
-5.7613e-24
6.96999e-22
-3.16914e-22
-3.03686e-21
1.07552e-20
4.23783e-66
4.77968e-67
-1.2911e-67
3.0557e-64
-3.53593e-69
1.76676e-64
6.65107e-67
-5.18388e-65
2.06779e-59
-4.54528e-60
6.05355e-56
-6.06963e-55
1.44746e-53
-8.66423e-53
2.3442e-51
-1.02348e-50
2.98878e-49
-1.02047e-48
3.14241e-47
-8.47363e-47
2.82981e-45
-7.15541e-45
2.33764e-43
-9.57787e-43
2.81176e-41
-5.97902e-41
1.51531e-39
-4.38295e-40
9.77558e-39
-5.75079e-40
2.07552e-38
-2.66248e-38
6.52567e-36
-4.60066e-36
8.55492e-34
-6.48716e-34
1.27721e-31
-3.83089e-32
1.42322e-27
-1.31181e-27
1.57233e-24
-1.3239e-24
1.18614e-22
-6.70806e-23
-7.10425e-22
1.62299e-21
-6.71615e-69
7.08234e-66
-1.32951e-66
6.18372e-64
-3.56881e-68
3.96587e-63
-3.42185e-66
-7.60548e-65
-3.68096e-60
-4.17205e-60
-5.17847e-59
-1.62072e-56
1.83383e-55
-2.61458e-54
4.4447e-53
-3.47546e-52
6.36949e-51
-3.56564e-50
6.45824e-49
-2.96434e-48
6.22473e-47
-6.50064e-46
8.69694e-45
-7.26616e-44
4.6809e-43
-6.84362e-43
2.05806e-42
-7.67448e-43
2.60779e-42
-1.5049e-41
2.16957e-40
-2.94968e-39
4.6409e-38
-3.99476e-37
9.84383e-36
-3.82228e-35
1.26616e-33
-2.75594e-32
6.2072e-29
-8.5375e-29
1.13336e-25
-1.51164e-25
9.77961e-24
-9.6755e-24
-1.74707e-22
1.81018e-22
-5.31618e-68
5.46059e-66
4.48147e-66
5.12992e-64
-7.49587e-67
8.55455e-63
-4.84982e-63
4.77301e-63
-2.83774e-61
-1.65445e-61
-5.72255e-59
-3.24736e-58
-3.18433e-57
-5.41451e-56
1.80392e-55
-7.57623e-54
4.15378e-53
-9.14196e-52
1.95985e-51
-9.18789e-50
-4.82718e-48
-1.80618e-47
-1.26591e-45
-1.43908e-45
-2.88027e-45
-9.3465e-45
-5.77575e-45
-1.40029e-44
-3.94071e-43
-1.04968e-42
-1.29007e-40
-1.84043e-40
-8.62701e-39
-2.16058e-38
-1.67555e-36
-1.41877e-35
-2.72722e-33
-1.26953e-32
-5.00376e-29
-9.56566e-30
-1.0181e-26
-1.0674e-26
-1.06679e-25
-1.13874e-24
-4.02129e-23
8.64082e-24
1.55456e-66
2.42857e-66
8.56273e-65
2.00182e-64
6.07383e-65
4.5164e-63
-1.08821e-63
3.68636e-62
-1.03641e-62
-2.50349e-64
-2.24654e-60
-3.42769e-60
-2.00161e-58
-7.34877e-58
-1.44491e-56
-1.12203e-55
-1.09899e-54
-1.43419e-53
-5.0931e-52
-1.98841e-51
-7.73217e-49
-5.83577e-49
-3.70799e-47
-2.20514e-47
-8.75109e-47
-1.86949e-47
-2.78822e-46
-1.86666e-46
-7.98309e-44
-3.89009e-44
-6.51455e-42
-6.29494e-42
-1.51039e-39
-2.84405e-39
-1.56196e-36
-2.32265e-36
-6.6042e-33
-1.54733e-33
-5.83904e-30
-8.38493e-31
-2.27235e-27
-6.01467e-28
-2.39487e-25
-1.03598e-25
-5.27243e-24
-1.10895e-23
3.44999e-66
5.19491e-67
1.11662e-64
3.12833e-65
9.09354e-64
6.46203e-64
-5.13468e-66
5.51705e-63
-1.87172e-64
-2.03503e-66
-3.95335e-62
-1.9335e-62
-4.16285e-60
-4.09057e-60
-2.91202e-58
-6.95674e-58
-2.52851e-56
-1.30486e-55
-3.79766e-53
-3.01816e-53
-9.03174e-50
-9.24894e-51
-1.33603e-49
-1.72145e-49
-2.25586e-49
-1.17711e-49
-7.97512e-48
-3.09462e-48
-3.19688e-45
-6.85036e-46
-3.31588e-43
-2.01425e-43
-2.7962e-40
-1.90501e-40
-1.06666e-36
-1.50622e-37
-1.1107e-33
-9.31753e-35
-6.5927e-31
-4.61184e-32
-2.08859e-28
-3.15062e-29
-4.04339e-26
-5.8336e-27
-3.7348e-25
-2.89516e-24
1.25582e-66
1.35568e-70
3.01318e-65
2.16899e-69
2.27072e-64
1.3064e-68
-6.40868e-68
2.52247e-71
-1.77525e-66
-1.99494e-69
-2.80292e-64
-1.4185e-65
-2.4745e-62
-5.01132e-63
-1.65795e-60
-1.18687e-60
-1.91028e-58
-4.5662e-58
-8.68571e-55
-2.56545e-55
-6.23676e-52
-5.16613e-54
-8.04612e-52
-2.47215e-54
-1.50553e-51
-8.16305e-53
-2.02526e-49