/*--------------------------------*- C++ -*----------------------------------*\
| =========                 |                                                 |
| \\      /  F ield         | OpenFOAM: The Open Source CFD Toolbox           |
|  \\    /   O peration     | Version:  v2012                                 |
|   \\  /    A nd           | Website:  www.openfoam.com                      |
|    \\/     M anipulation  |                                                 |
\*---------------------------------------------------------------------------*/
FoamFile
{
    version     2.0;
    format      ascii;
    class       volScalarField;
    location    "0.7";
    object      alpha.water;
}
// * * * * * * * * * * * * * * * * * * * * * * * * * * * * * * * * * * * * * //

dimensions      [0 0 0 0 0 0 0];


internalField   nonuniform List<scalar> 
2268
(
1
1
1
1
1
1
1
1
1
1
1
1
1
1
1
1
1
0.999999
0.998139
0.961471
0.950199
0.959137
0.998556
1
1
1
1
1
1
1
1
1
1
1
1
1
1
1
1
1
1
0.999981
0.98608
0.95352
0.956195
0.998635
1
1
1
1
1
1
1
1
1
1
1
1
1
1
1
1
1
1
1
0.999973
0.989416
0.960531
0.998673
1
1
1
1
1
1
1
1
1
1
1
1
1
1
1
1
1
1
1
1
0.999173
0.994072
0.999491
1
1
1
1
1
1
1
1
1
1
1
1
1
1
1
1
1
1
1
1
1
1
0.999828
1
1
1
1
1
1
1
1
1
1
1
1
1
1
1
1
1
1
1
1
1
0.999997
0.999626
1
1
1
1
1
1
1
1
1
1
1
1
1
1
1
1
1
1
1
1
1
0.999985
0.999576
1
1
1
1
1
1
1
1
1
1
1
1
1
1
1
1
1
1
1
1
1
0.999982
0.99961
0.173019
0.893544
0.993253
0.993322
0.993386
0.994269
0.992261
0.984476
0.984311
0.984314
0.984497
0.991317
0.997657
0.992106
0.976738
0.969263
0.969584
0.962474
0.934091
0.603465
0.981142
0.993253
0.899392
0.939886
0.99344
0.99763
0.997646
0.997665
0.997672
0.997671
0.997673
0.997669
0.997663
0.997596
0.994438
0.970175
0.984723
0.986103
0.776665
0.816994
0.231069
0.0691375
0.186292
0.601774
0.889495
0.959475
0.986468
0.997672
0.99767
0.997669
0.997665
0.9976
0.99744
0.992016
0.919844
0.908902
0.938744
0.743222
0.734756
0.0407063
0.0355683
0.0303824
0.0303824
0.0595067
0.195693
0.54808
0.820376
0.948992
0.997426
0.997492
0.997439
0.997116
0.996947
0.989376
0.885707
0.885707
0.731898
0.360543
0.0477708
0.122224
0.469307
0.403166
0.0714255
0.0470271
0.0437626
0.0265411
0.27656
0.725057
0.96759
0.996971
0.996956
0.996836
0.996766
0.976113
0.885703
0.710525
0.18452
0.171984
0.631668
0.803085
0.803085
0.643039
0.108443
0.021039
0.0160445
0.0109366
0.0256791
0.491657
0.969064
0.996781
0.996746
0.996683
0.978182
0.885708
0.634586
0.231646
0.457802
0.809765
0.805346
0.804087
0.797762
0.430117
0.0408443
0.0105496
0.00931054
0.00690386
0.0350473
0.602013
0.996441
0.996664
0.996246
0.981857
0.885786
0.290232
0.291018
0.744478
0.831258
0.786005
0.629725
0.668749
0.619284
0.11565
0.00924406
0.00504495
0.003957
0.00683971
0.32009
0.99245
0.996518
0.995837
0.990094
0.886432
0.52176
0.536638
0.56975
0.63107
0.697752
0.768665
0.846151
0.918561
0.974518
1
1
1
1
1
1
1
1
1
1
1
1
0.999998
0.999968
0.0002579
0.00150117
0.00530403
0.0146126
0.0378713
0.0779493
0.137868
0.22375
0.340067
0.490704
0.659179
0.807926
0.91931
0.98429
1
0.999999
0.999998
0.999999
0.999998
0.999999
0.999999
0.999997
0.999947
-8.25782e-10
-2.38572e-11
2.48401e-06
6.62617e-06
9.96243e-06
1.48751e-05
2.13958e-05
2.92705e-05
4.18984e-05
0.00457572
0.0322656
0.0879014
0.1796
0.31024
0.498552
0.721206
0.879675
0.931247
0.957292
0.988392
0.997937
0.999949
0.999902
8.4306e-11
1.45869e-09
4.16087e-08
1.5007e-07
2.27281e-07
3.31048e-07
4.67959e-07
7.0745e-07
1.21113e-06
2.39648e-06
4.1664e-06
4.46344e-06
2.46909e-06
2.70003e-07
0.000218282
0.0045482
0.0360648
0.135851
0.274092
0.416458
0.521883
0.622677
0.708105
-4.55269e-10
-3.1387e-13
-1.28051e-11
2.49148e-09
4.23051e-09
6.50387e-09
9.61197e-09
1.42472e-08
2.45511e-08
6.0732e-08
1.0184e-07
1.02299e-07
4.16393e-08
1.21811e-11
1.22474e-11
2.43626e-11
3.66243e-11
5.42437e-11
3.21747e-25
-2.746e-23
2.17063e-10
1.14298e-08
0.0353152
-8.60435e-11
-3.73115e-10
-1.68414e-09
-6.338e-12
-1.40631e-11
-2.5866e-11
-4.45995e-11
-6.39171e-11
-8.10567e-12
-3.72723e-11
1.90331e-09
1.60055e-09
5.28748e-10
-6.67563e-24
0
2.26033e-09
8.53161e-09
3.35819e-09
-4.10168e-10
-5.43734e-10
-2.1198e-20
2.17044e-10
1.11542e-08
-1.28552e-11
-3.744e-11
-1.47413e-09
-4.08267e-09
-7.44226e-09
-1.11575e-08
-1.46199e-08
-1.73523e-08
-1.76822e-08
-1.00544e-08
0
0
2.54407e-28
-1.21317e-08
-2.00143e-08
-1.91928e-08
-1.39252e-08
-7.90138e-09
-4.50239e-09
-2.44258e-09
-1.66735e-10
-3.71605e-12
1.28761e-08
-3.30061e-12
-2.8487e-12
-3.62988e-10
-1.24171e-09
-2.61258e-09
-4.45912e-09
-6.74394e-09
-9.41834e-09
-1.22461e-08
-1.444e-08
-1.43738e-08
-1.45745e-08
-1.63192e-08
-1.93667e-08
-2.10813e-08
-2.01539e-08
-1.81792e-08
-1.58988e-08
-1.2127e-08
-7.57469e-09
-3.51748e-09
-8.59714e-14
1.50349e-09
-6.84199e-13
-5.0807e-13
-7.05837e-11
-2.61567e-10
-5.7825e-10
-1.03193e-09
-1.64845e-09
-2.46477e-09
-3.50164e-09
-4.69256e-09
-5.73163e-09
-6.54285e-09
-7.33262e-09
-7.99141e-09
-8.20857e-09
-7.58894e-09
-6.21037e-09
-4.42825e-09
-2.90506e-09
-1.71208e-09
-7.62919e-10
0
5.01637e-11
-9.52136e-14
-7.47682e-14
-1.09311e-11
-4.21709e-11
-9.34332e-11
-1.6624e-10
-2.66615e-10
-4.05744e-10
-5.94169e-10
-8.33078e-10
-1.08409e-09
-1.2966e-09
-1.45739e-09
-1.53657e-09
-1.47883e-09
-1.21557e-09
-7.71222e-10
-2.6294e-10
5.4076e-10
1.37026e-09
1.45661e-09
1.45644e-09
1.709e-09
-8.09641e-15
-1.45169e-14
-1.21364e-12
-4.82606e-12
-1.05206e-11
-1.80873e-11
-2.80618e-11
-4.15523e-11
-5.88907e-11
-7.88595e-11
-9.38341e-11
-1.04682e-10
-9.19848e-11
-5.52063e-11
-3.63941e-12
6.92066e-11
1.90583e-10
4.07241e-10
7.19865e-10
9.47247e-10
9.78533e-10
9.65632e-10
1.14774e-09
-5.67503e-16
-3.9156e-15
-8.4511e-14
-3.61111e-13
-8.05655e-13
-1.30501e-12
-1.82411e-12
-2.30948e-12
-2.44795e-12
-2.0154e-12
1.84475e-12
1.45217e-11
4.11231e-11
6.05354e-11
6.3915e-11
6.37004e-11
5.98856e-11
7.34286e-11
1.06135e-10
1.08941e-10
1.30523e-10
1.48341e-10
1.86894e-10
-1.34947e-16
-8.42214e-16
-6.128e-15
-3.2528e-14
-8.05663e-14
-1.13974e-13
-1.11996e-13
-4.10989e-14
5.28843e-14
6.05732e-13
8.91337e-13
1.73001e-12
4.54042e-12
8.0599e-12
8.60823e-12
6.95411e-12
3.77421e-12
2.077e-12
2.02602e-12
2.145e-12
3.21427e-12
5.14896e-12
8.37929e-12
-4.31928e-17
-2.76947e-16
-1.81437e-15
-7.94761e-15
-1.75789e-14
-2.11724e-14
-1.50939e-14
9.0553e-16
4.88542e-15
2.4338e-14
5.19335e-14
8.78404e-14
1.16491e-13
1.54976e-13
1.71054e-13
1.70973e-13
1.88041e-13
2.70959e-13
4.908e-13
8.06307e-13
9.93106e-13
1.11204e-12
1.34329e-12
-1.14117e-17
-7.07345e-17
-4.1537e-16
-1.55554e-15
-3.03225e-15
-3.01667e-15
-1.53699e-15
-9.29972e-17
5.21087e-16
2.86451e-15
6.19767e-15
8.64261e-15
1.03003e-14
1.03728e-14
9.14647e-15
6.57366e-15
6.64778e-15
1.02108e-14
2.64544e-14
7.09515e-14
1.03423e-13
1.16604e-13
1.38994e-13
-2.34101e-18
-1.34101e-17
-7.06481e-17
-2.29808e-16
-3.88939e-16
-3.0894e-16
-1.10117e-16
1.67062e-17
6.02721e-17
2.16642e-16
4.49128e-16
6.1968e-16
6.56189e-16
5.75633e-16
3.59569e-16
1.54916e-16
1.32029e-16
1.5216e-16
2.61013e-16
7.88297e-16
1.93698e-15
4.16549e-15
1.36687e-14
-3.50036e-19
-1.77238e-18
-8.28522e-18
-2.33619e-17
-3.36093e-17
-2.03528e-17
-4.87808e-18
3.54369e-19
4.09713e-18
1.29628e-17
2.18474e-17
2.71245e-17
2.65175e-17
1.99987e-17
9.85618e-18
3.50235e-18
3.18547e-18
3.90917e-18
9.11806e-18
5.04487e-17
3.72449e-16
2.37925e-15
1.93865e-14
-3.58152e-20
-1.53262e-19
-6.14006e-19
-1.46864e-18
-1.78792e-18
-8.25982e-19
-3.09022e-21
5.35827e-20
1.89779e-19
4.57102e-19
7.35322e-19
8.99363e-19
8.89181e-19
6.9384e-19
3.63817e-19
1.31025e-19
1.42595e-19
4.59546e-19
3.97553e-18
3.88044e-17
3.76161e-16
3.47117e-15
4.06433e-14
-2.81241e-21
-1.13278e-20
-4.11565e-20
-9.54197e-20
-1.32564e-19
-8.14071e-20
-5.37214e-21
2.0315e-21
5.79185e-21
1.0396e-20
1.942e-20
2.56391e-20
2.76209e-20
2.2924e-20
1.14721e-20
5.70986e-21
1.95187e-20
2.22285e-19
2.61486e-18
2.65288e-17
3.52921e-16
5.39684e-15
7.55796e-14
-3.29431e-22
-1.62348e-21
-6.7218e-21
-1.77416e-20
-2.78505e-20
-1.63456e-20
-7.74727e-22
1.45451e-22
1.67944e-22
2.11563e-22
4.37514e-22
6.08457e-22
6.24882e-22
4.76781e-22
2.05588e-22
5.9658e-22
8.22541e-21
1.13635e-19
1.37547e-18
1.45275e-17
2.89186e-16
7.15508e-15
1.1022e-13
-4.04451e-23
-1.9952e-22
-8.67479e-22
-2.40674e-21
-3.86071e-21
-1.62983e-21
1.23331e-22
1.51697e-23
9.8334e-24
9.00475e-24
1.01794e-23
9.69342e-24
7.95448e-24
5.5277e-24
1.11855e-23
1.88808e-22
3.24664e-21
4.76182e-20
6.11433e-19
6.59526e-18
1.95591e-16
8.06378e-15
1.32885e-13
-2.5129e-24
-1.23732e-23
-5.6219e-23
-1.61008e-22
-2.30908e-22
1.09721e-22
4.7015e-23
8.74688e-25
5.24537e-25
4.1024e-25
2.75894e-25
1.23045e-25
3.10838e-26
1.26077e-25
2.96581e-24
6.19357e-23
1.10899e-21
1.81092e-20
2.39733e-19
2.60778e-18
1.1032e-16
6.27449e-15
1.20288e-13
-2.7445e-27
-4.43079e-27
-1.8401e-29
8.01566e-26
8.22964e-24
3.85774e-23
8.14391e-25
1.3057e-26
8.14426e-27
9.0486e-27
8.4884e-27
4.5265e-27
2.08914e-27
3.4466e-26
8.1709e-25
1.73426e-23
3.55815e-22
6.27902e-21
8.39596e-20
9.32184e-19
5.41528e-17
4.15785e-15
9.34359e-14
-2.29785e-30
-2.89823e-30
-1.83566e-30
-2.99988e-31
2.5619e-32
4.13072e-31
1.3144e-30
1.09886e-29
2.18611e-29
1.54921e-29
8.4227e-30
1.06154e-29
2.38373e-28
7.36537e-27
1.8983e-25
4.67035e-24
1.05817e-22
1.9864e-21
2.64498e-20
3.0047e-19
2.58732e-17
2.76324e-15
6.99467e-14
-3.18926e-44
-1.57912e-42
-1.29083e-41
-1.65646e-45
1.86156e-40
2.20688e-35
2.02094e-33
2.05566e-32
7.05829e-32
1.31367e-31
2.11318e-31
1.53362e-30
5.26984e-29
1.52808e-27
4.36245e-26
1.16906e-24
2.89074e-23
5.60972e-22
7.48221e-21
9.1266e-20
1.36939e-17
1.89856e-15
4.8585e-14
1.37162e-48
1.17743e-51
1.02116e-55
2.41364e-51
4.98e-45
1.3398e-38
1.30506e-35
3.30753e-34
1.44505e-33
3.02356e-33
7.84815e-33
2.37204e-31
8.63464e-30
2.91465e-28
9.18131e-27
2.70224e-25
7.04522e-24
1.3725e-22
1.86904e-21
2.89917e-20
8.49662e-18
1.31462e-15
3.27135e-14
5.86711e-51
1.22703e-50
6.72638e-54
-2.83737e-51
1.00741e-47
2.363e-41
5.23404e-38
1.64437e-36
8.34411e-36
2.97852e-35
7.74251e-34
3.66815e-32
1.40184e-30
5.17178e-29
1.78391e-27
5.60055e-26
1.48062e-24
2.85556e-23
4.14306e-22
1.20046e-20
5.79812e-18
8.60815e-16
2.13046e-14
2.64737e-52
8.15866e-51
6.06725e-54
1.81322e-54
1.94887e-47
2.09765e-43
1.11807e-41
5.48406e-40
3.14785e-38
1.91918e-36
1.09991e-34
4.72191e-33
2.06015e-31
8.37011e-30
3.09011e-28
1.00203e-26
2.58746e-25
4.9769e-24
8.78244e-23
7.17835e-21
4.04857e-18
5.38859e-16
1.2877e-14
5.69877e-54
3.0284e-53
3.36322e-54
2.54711e-54
2.00131e-49
8.49712e-45
1.07655e-42
6.49604e-41
4.18582e-39
2.39383e-37
1.14015e-35
5.68043e-34
2.73405e-32
1.19957e-30
4.60841e-29
1.48596e-27
3.58064e-26
6.82253e-25
2.1313e-23
4.98145e-21
2.77149e-18
3.16342e-16
6.73224e-15
1.68562e-55
1.45922e-56
9.04554e-57
6.95801e-57
1.24589e-48
4.95741e-46
4.71906e-44
4.40483e-42
3.08267e-40
1.85766e-38
1.10393e-36
6.08216e-35
3.15886e-33
1.49297e-31
5.89987e-30
1.67816e-28
3.21858e-27
6.29295e-26
6.02473e-24
2.94275e-21
1.7382e-18
1.62414e-16
2.81862e-15
4.45232e-57
1.84871e-60
2.18829e-60
1.81582e-57
3.30525e-50
2.80618e-47
3.17678e-45
2.55731e-43
1.99096e-41
1.48385e-39
9.58873e-38
5.47921e-36
3.23314e-34
1.7827e-32
7.32067e-31
9.51408e-30
2.43882e-29
4.57716e-27
7.31212e-25
1.29334e-21
8.85992e-19
6.5223e-17
8.90156e-16
8.26702e-59
-3.59855e-60
-2.26254e-61
5.57636e-59
1.03983e-51
1.14079e-48
1.36689e-46
1.34989e-44
1.18466e-42
9.25374e-41
6.49373e-39
4.2913e-37
4.2094e-35
1.97815e-33
1.38497e-32
2.31624e-32
4.04427e-30
4.08386e-28
4.57187e-26
3.77974e-22
3.10868e-19
1.80996e-17
2.06856e-16
-1.49005e-61
-5.91147e-59
-2.84388e-59
3.56067e-62
1.34051e-55
3.79363e-50
5.12954e-48
5.79762e-46
5.55865e-44
4.45341e-42
3.7548e-40
4.96799e-38
2.85731e-36
1.96372e-35
2.52027e-35
1.20797e-33
1.99736e-31
2.73731e-29
2.00148e-27
5.63171e-23
6.07396e-20
3.32246e-18
4.27282e-17
-2.17729e-60
-1.20152e-58
-6.40935e-58
0
4.3066e-55
1.00231e-51
1.53059e-49
1.94376e-47
1.91796e-45
1.54238e-43
3.3576e-41
3.59892e-39
3.18148e-38
3.44809e-38
6.62763e-37
1.30672e-34
1.65132e-32
6.20323e-31
8.91167e-29
1.43295e-24
6.23523e-21
4.41208e-19
9.70303e-18
-1.66622e-60
-1.00288e-58
-1.38872e-57
-6.84738e-58
9.94355e-57
1.98354e-53
3.13221e-51
4.18654e-49
4.86387e-47
4.73434e-45
9.06248e-43
6.94577e-41
4.34379e-40
6.27952e-40
4.58034e-38
7.49637e-36
2.576e-34
2.70075e-32
7.32195e-30
1.01788e-26
3.89075e-22
4.80953e-20
2.02721e-18
-7.4457e-61
-3.94915e-59
-7.36418e-58
-5.29002e-57
2.35535e-61
2.06231e-55
4.20162e-53
6.13839e-51
7.55982e-49
1.01442e-46
2.92939e-44
1.064e-42
8.70796e-43
8.12734e-42
1.62658e-39
1.60036e-37
6.03043e-36
1.68055e-33
6.47805e-31
4.92979e-28
1.8454e-23
4.06646e-21
2.41853e-19
-1.63652e-61
-6.25078e-60
-1.05716e-58
-7.899e-58
1.60885e-63
1.14784e-57
2.31154e-55
3.76927e-53
6.83249e-51
1.53524e-48
4.58885e-46
8.29637e-45
5.51404e-45
1.34329e-43
2.49872e-41
1.01722e-39
1.81637e-37
7.95445e-35
3.51937e-32
4.2633e-29
9.31255e-25
2.17354e-22
1.63899e-20
-4.55926e-65
-4.40803e-64
-2.13806e-63
-3.58742e-66
7.18421e-67
8.20524e-61
2.80084e-58
6.38242e-56
2.38329e-53
1.30475e-50
2.55362e-49
1.19213e-49
3.7078e-48
3.00991e-46
4.68941e-44
2.27151e-41
1.45515e-38
9.41705e-36
3.06216e-32
9.75503e-28
9.68256e-26
6.99768e-24
6.90161e-22
-1.07355e-65
-7.00044e-65
-2.86851e-64
-7.162e-65
1.16709e-87
8.53276e-65
4.5578e-61
1.52689e-59
1.19776e-63
9.48103e-61
6.50831e-58
4.02516e-55
2.3008e-52
1.79247e-49
2.16131e-46
2.78078e-43
3.49591e-40
4.11536e-37
3.70282e-32
1.654e-28
8.28881e-27
1.07119e-25
5.15396e-24
-4.84899e-68
-2.96368e-67
-1.95194e-66
-9.28788e-66
-3.64564e-87
-1.29936e-87
1.83944e-76
5.93882e-73
1.00244e-69
1.79434e-66
2.34313e-63
2.63627e-60
2.61425e-57
4.80227e-54
9.17284e-51
1.89924e-47
3.99483e-44
7.61055e-41
1.31352e-36
2.05397e-31
4.58004e-29
6.57958e-28
2.33752e-27
-1.19486e-86
5.17603e-86
-3.08254e-87
-6.43512e-99
-5.43335e-96
-1.82791e-95
-7.37507e-95
-4.43977e-91
-1.0337e-90
-6.13383e-87
4.97883e-83
5.61753e-94
9.38616e-74
2.70945e-69
4.99933e-65
6.95477e-61
7.38941e-57
6.00139e-53
2.03441e-41
5.57095e-35
1.10387e-31
3.47657e-30
1.0246e-29
-7.53281e-87
-7.24546e-87
-2.70645e-86
-1.51688e-114
-1.71344e-111
-2.45293e-110
-1.30931e-106
-6.55107e-106
-5.18757e-106
-4.01514e-106
5.19523e-92
3.70621e-94
5.6114e-90
1.28902e-80
1.63407e-81
-5.35452e-77
3.1696e-69
-5.07086e-67
-1.26697e-62
2.49522e-48
6.90999e-42
6.02716e-39
9.29439e-38
0.999722
0.99971
0.999647
0.929613
0.999861
0.999781
0.999696
0.999186
0.999821
0.999744
0.999649
0.999261
0.770448
0.798859
0.81126
0.841564
0.0829347
0.110531
0.126707
0.161897
4.57879e-07
1.41955e-05
0.000180005
0.0017023
3.92667e-07
7.65382e-06
5.5695e-05
0.000341417
5.02997e-08
1.01591e-06
7.86639e-06
5.10865e-05
3.38118e-09
4.87449e-08
4.5938e-07
4.75273e-06
1.28951e-09
3.00543e-09
2.67735e-08
3.13677e-07
1.03778e-09
3.5262e-10
1.68602e-09
2.11142e-08
2.36938e-10
9.92949e-11
1.08755e-10
1.4658e-09
1.35868e-11
1.49043e-11
7.80329e-12
9.05757e-11
1.66668e-12
2.1474e-12
1.55382e-12
3.67675e-12
1.68576e-13
2.0502e-13
2.7939e-13
3.12548e-13
2.9403e-14
4.94182e-14
8.44924e-14
1.2003e-13
4.69954e-14
8.10536e-14
1.4029e-13
2.25868e-13
1.05517e-13
1.88314e-13
3.2897e-13
5.27582e-13
2.01209e-13
3.67629e-13
6.54595e-13
1.09903e-12
2.98426e-13
5.52759e-13
9.99507e-13
1.7553e-12
3.65576e-13
6.82267e-13
1.28129e-12
2.2109e-12
3.41555e-13
6.48714e-13
1.27849e-12
2.16019e-12
2.74737e-13
5.41353e-13
1.17218e-12
2.0878e-12
2.16941e-13
4.63987e-13
1.16126e-12
2.35806e-12
1.66526e-13
4.14392e-13
1.24833e-12
3.20352e-12
1.26621e-13
3.76831e-13
1.21443e-12
3.3579e-12
9.36509e-14
3.04357e-13
8.84343e-13
2.08337e-12
6.04797e-14
1.80499e-13
4.29207e-13
7.9198e-13
3.03262e-14
7.52503e-14
1.42481e-13
1.9882e-13
1.10782e-14
2.20159e-14
3.38352e-14
3.17776e-14
2.96112e-15
4.98505e-15
7.13542e-15
9.61049e-15
6.62703e-16
1.38715e-15
3.41538e-15
3.13545e-14
1.8271e-16
7.3986e-16
3.58103e-15
7.02073e-14
7.22411e-17
5.08237e-16
2.19494e-15
4.00905e-14
2.29297e-17
2.44806e-16
8.55e-16
7.22157e-16
2.98199e-18
5.10942e-17
2.45662e-16
1.46132e-16
2.12154e-19
5.47162e-18
3.33291e-17
1.96612e-17
1.04324e-20
4.5564e-19
2.87724e-18
7.60526e-19
1.09051e-22
4.45845e-21
2.10797e-20
6.316e-22
1.26051e-26
2.21339e-24
1.85892e-23
1.93707e-25
8.14275e-39
3.89955e-36
1.90489e-33
-1.46991e-28
0
-7.86098e-57
-1.60993e-53
-1.45743e-36
0.558595
0.796849
0.929799
0.837695
0.238579
0.00149465
0.0528169
0.196459
0.159328
0.0182377
0.00202098
0.0026066
0.00392381
0.190079
0.881303
0.994411
0.99493
0.991739
0.952304
0.994332
0.997375
0.950071
0.178187
0.000241329
0.000661971
0.00247228
0.0357097
0.0677049
0.0140672
0.00105182
0.00154613
0.00258958
0.198667
0.811227
0.939529
0.989352
0.990261
0.981008
0.998153
0.99737
0.668977
0.0168082
2.84762e-05
0.000757334
0.00245347
0.0017256
0.00153081
0.00469485
0.000540381
0.000752318
0.00481269
0.579965
0.767555
0.331782
0.653203
0.959375
0.934991
0.940297
0.99737
0.550628
2.87617e-05
2.06967e-05
0.000109108
0.000421456
0.00108543
0.000484811
0.000419446
0.000302383
0.000555538
0.140517
0.680785
0.588049
0.115129
0.227541
0.920251
0.902073
0.469098
0.940018
0.598904
1.98832e-05
1.50289e-05
2.90364e-05
0.000285866
0.000348444
0.00014685
0.000134725
0.000132176
0.000292291
0.586869
0.683093
0.197407
0.113155
0.130225
0.680238
0.874212
0.0724946
0.543363
0.673162
0.331683
1.21046e-05
7.78015e-06
4.47146e-05
3.73112e-05
3.55123e-05
3.70913e-05
0.000102557
0.0420301
0.683241
0.660971
0.111915
0.111181
0.118606
0.474073
0.875481
0.00226733
0.232579
0.672662
0.556968
0.0159179
5.10495e-06
5.4852e-06
8.32304e-06
1.00773e-05
4.36177e-06
3.80203e-05
0.454339
0.683694
0.351583
0.111267
0.111987
0.273901
0.490315
0.868488
0.000343427
0.0256208
0.441105
0.583898
0.315364
4.7579e-06
4.17913e-06
4.37241e-06
4.60473e-06
3.61639e-06
7.01778e-06
0.727269
0.68136
0.104278
0.105468
0.268351
0.316352
0.276964
0.366901
5.10507e-05
0.000548859
0.144409
0.568369
0.508552
0.111038
3.93982e-06
3.59607e-06
3.60203e-06
3.6227e-06
0.364201
0.754309
0.560563
0.0978273
0.100443
0.190323
0.118055
0.034318
0.0773749
4.75495e-06
7.0291e-05
0.0122929
0.32053
0.522603
0.486624
0.0200984
3.60651e-06
3.59606e-06
0.0243323
0.737471
0.757499
0.364162
0.0683168
0.0470851
0.0360286
0.00934469
0.0254529
0.070848
3.19213e-07
6.85029e-06
0.000209256
0.0454676
0.3952
0.499303
0.323474
0.00109018
0.0250129
0.604164
0.76696
0.759733
0.303403
0.0407897
0.000920608
0.00128931
0.00618365
0.136861
0.151869
2.18027e-08
5.89659e-07
1.95971e-05
0.000352541
0.0374512
0.308279
0.545125
0.634917
0.688723
0.766848
0.76696
0.421332
0.150515
0.0257757
0.000183481
0.000385602
0.0159013
0.145542
0.151869
1.27844e-09
3.88552e-08
1.75115e-06
3.39597e-05
0.000276646
0.0171737
0.191452
0.368074
0.387582
0.359683
0.248516
0.0554262
0.00791515
0.00449226
8.37114e-05
0.000182933
0.0144444
0.0399079
0.151869
1.49326e-11
2.37789e-09
1.50877e-07
3.50973e-06
3.01478e-05
0.000166962
0.00062241
0.00706697
0.00652177
0.00153513
7.95684e-05
4.43102e-05
7.18403e-05
6.0826e-05
3.16443e-05
0.000850294
0.0636264
0.0477684
0.0879247
-3.94548e-12
5.135e-11
1.26116e-08
3.55027e-07
3.08072e-06
1.66479e-05
5.29445e-05
6.07675e-05
1.88049e-05
4.62588e-06
1.47569e-05
1.60849e-05
2.23439e-05
1.07392e-05
2.82256e-05
3.27175e-06
0.0736161
0.0749879
0.0658386
-2.67521e-13
-1.26873e-11
1.00351e-09
3.36207e-08
2.95103e-07
1.73035e-06
4.98557e-06
2.9834e-05
9.70171e-06
1.59577e-06
1.01051e-05
1.13168e-05
4.52779e-06
3.34167e-06
3.79657e-05
1.27422e-06
0.0603621
0.0763585
0.0654214
2.71749e-13
-9.45817e-13
6.62465e-11
1.75217e-09
2.71451e-08
1.8105e-07
7.44476e-07
4.96734e-05
1.49004e-05
5.69122e-07
3.44303e-06
2.00241e-06
9.20526e-07
7.41655e-07
3.60593e-05
8.28133e-07
0.00348324
0.0742958
0.0664444
1.13454e-12
1.50077e-12
4.85743e-12
6.40508e-11
3.08574e-09
1.97535e-08
1.82538e-07
3.17206e-05
1.16357e-05
3.59038e-07
2.83367e-07
2.83827e-07
1.48757e-07
4.16097e-07
1.42579e-05
1.63074e-07
4.11992e-07
0.0524924
0.110867
2.27319e-12
7.46532e-12
9.31579e-12
2.74708e-11
3.2373e-10
3.20209e-09
1.04887e-06
2.32613e-06
4.08958e-06
3.80593e-07
3.49435e-08
5.92766e-08
2.45572e-08
5.42832e-07
1.79413e-08
1.79269e-08
1.79269e-08
0.0740666
0.11173
3.53938e-12
2.05891e-11
3.24533e-11
6.47217e-11
9.19325e-11
6.76643e-09
1.36679e-06
1.01236e-07
4.77626e-08
1.56186e-07
1.47008e-08
1.15958e-08
7.90296e-09
3.38747e-08
1.80111e-08
1.79366e-08
0.00415196
0.11173
0.111754
4.92545e-12
3.09156e-11
5.71277e-11
1.19526e-10
1.30558e-10
1.68598e-10
6.28013e-07
4.69617e-08
8.26579e-09
1.25367e-08
4.69027e-09
2.6033e-09
2.38771e-09
3.9533e-09
1.41252e-07
1.80111e-08
0.0376887
0.111754
0.111754
8.62174e-12
4.21323e-11
1.27452e-10
1.79474e-10
3.20569e-10
3.16535e-10
3.36885e-10
3.75438e-09
2.54687e-09
1.76752e-09
1.93786e-09
1.06469e-09
1.77059e-09
2.82347e-07
3.23125e-07
2.00176e-08
0.0582941
0.11186
0.111814
1.9561e-11
7.06554e-11
3.041e-10
2.87447e-10
4.55305e-10
4.13032e-10
3.90146e-10
9.11206e-10
1.20726e-09
1.32687e-09
1.42821e-09
9.40229e-10
3.48907e-09
3.03891e-07
2.9769e-07
1.82248e-08
0.0206287
0.112328
0.111764
2.74108e-11
1.36373e-10
3.84651e-10
3.6849e-10
4.81622e-10
4.44273e-10
4.33042e-10
5.92588e-10
9.57014e-10
1.14045e-09
1.17044e-09
9.10642e-10
9.3436e-10
3.04748e-07
2.24377e-07
6.77611e-09
1.10586e-09
0.0928864
0.11184
2.34034e-11
1.3584e-10
3.88554e-10
3.97475e-10
4.70597e-10
4.43695e-10
4.44369e-10
4.82991e-10
7.66765e-10
9.3192e-10
1.03197e-09
9.01206e-10
8.97576e-10
2.80914e-07
1.46587e-07
1.11841e-09
9.08407e-10
0.01585
0.11177
1.4384e-11
1.18837e-10
2.86824e-10
4.43834e-10
4.66447e-10
5.39288e-10
1.73831e-09
5.24036e-10
7.10958e-10
8.68417e-10
9.42344e-10
8.97576e-10
8.96718e-10
2.66662e-08
5.21692e-09
8.78945e-10
9.20222e-10
0.000428061
0.110478
7.63351e-12
8.66524e-11
1.26976e-10
7.84451e-10
4.668e-10
6.23826e-09
1.72915e-08
1.14583e-08
1.0449e-09
8.75011e-10
9.03641e-10
9.04088e-10
8.96337e-10
6.90524e-10
8.39512e-10
9.32668e-10
9.18772e-10
9.8105e-10
0.10943
3.69579e-12
4.06302e-11
4.24285e-11
1.40274e-09
5.28363e-10
1.51425e-08
1.84851e-08
1.84851e-08
1.0218e-08
1.14676e-09
9.08232e-10
9.23826e-10
8.98389e-10
6.54661e-10
6.8104e-10
1.04914e-09
9.83405e-10
1.43768e-09
0.104581
1.58105e-12
1.5482e-11
2.86709e-11
1.39115e-09
2.36518e-09
9.19959e-09
1.33926e-08
1.72185e-08
1.72973e-08
6.70974e-09
1.32286e-09
8.75191e-10
6.53447e-10
6.50291e-10
5.01468e-08
6.67559e-08
1.33709e-09
0.00127355
0.0353822
6.67856e-13
6.23491e-12
4.02106e-11
1.06264e-09
3.00981e-09
1.99456e-09
2.16594e-09
2.67283e-09
1.69759e-08
1.66122e-08
4.85996e-09
6.64744e-10
6.46512e-10
6.51912e-10
3.58278e-07
1.57148e-07
3.29652e-09
0.0130745
0.0114381
5.16122e-13
2.62616e-12
3.50785e-11
3.0026e-10
2.14667e-09
4.90494e-11
8.58089e-08
6.20237e-08
1.11688e-08
9.98282e-09
4.20007e-09
6.36881e-10
6.55082e-10
1.60021e-07
4.1767e-07
1.72913e-07
9.77845e-09
0.0212612
0.0116885
7.26387e-13
2.52743e-12
1.34177e-11
5.31761e-11
6.362e-10
3.2387e-11
6.42812e-07
1.68615e-07
1.45983e-09
8.75926e-10
9.94047e-10
6.14379e-10
6.36881e-10
4.00037e-07
4.17307e-07
1.35635e-07
1.47936e-08
0.0212859
0.0393714
1.37602e-12
3.7259e-12
7.83949e-12
2.32894e-11
1.39892e-10
3.46435e-11
6.44333e-07
2.26563e-09
7.63368e-10
6.43118e-10
6.1438e-10
6.21401e-10
2.12186e-08
3.85145e-07
2.38997e-07
6.57858e-08
1.96669e-08
0.00569235
0.0393697
1.87904e-12
6.26939e-12
9.43703e-12
1.52292e-11
5.13869e-11
1.78228e-11
4.74063e-09
3.31445e-06
9.30858e-06
1.07948e-05
7.74163e-06
1.10735e-06
6.68282e-08
8.3859e-08
8.21217e-08
7.51879e-08
4.83712e-08
1.09825e-05
0.0393865
1.23263e-12
6.95249e-12
1.51815e-11
1.89682e-11
2.75741e-11
1.78331e-11
1.78331e-11
9.47165e-06
1.8605e-05
1.89219e-05
1.89508e-05
1.61972e-05
1.0661e-06
8.96244e-08
8.60743e-08
4.03794e-06
8.0177e-07
1.92487e-06
0.0392549
5.53644e-13
5.08896e-12
1.4928e-11
2.40508e-11
4.37722e-11
3.37736e-11
2.80608e-11
1.95567e-06
1.74639e-05
1.8952e-05
1.89498e-05
1.46148e-05
2.83401e-07
1.42203e-07
4.74335e-05
0.000204336
9.31917e-05
2.74046e-06
0.0344724
9.72394e-14
1.93229e-12
1.13295e-11
3.21158e-11
2.04724e-10
1.06311e-09
1.447e-10
1.79419e-10
2.46273e-06
1.2831e-05
1.13916e-05
5.29422e-07
9.78141e-06
0.000114764
0.000206833
0.000206965
0.000160388
5.5665e-06
0.00487704
1.49459e-14
6.18333e-13
6.15861e-12
2.79055e-11
2.2221e-10
2.46876e-09
7.68227e-09
5.5172e-09
6.38655e-09
2.23405e-07
6.67823e-08
1.90058e-08
1.80627e-05
0.000206585
0.000206965
0.000206876
0.000111319
1.15432e-05
0.00388404
1.36947e-16
2.54566e-14
9.43737e-13
1.08182e-11
1.10678e-10
1.48786e-09
7.75879e-09
6.04749e-09
1.89591e-09
1.68394e-09
1.12474e-09
1.08065e-08
6.31677e-06
4.54996e-05
0.000113387
7.73021e-05
8.57676e-09
7.29022e-05
0.0148605
9.33352e-21
8.01213e-17
1.63199e-14
9.97775e-13
1.75033e-11
2.63581e-10
1.77315e-09
3.45165e-09
1.71787e-09
5.87207e-10
1.2937e-10
2.32365e-08
1.18855e-08
1.77076e-08
1.19459e-07
1.11117e-07
3.85572e-10
0.00129699
0.0148925
1.27182e-26
2.70678e-20
1.54672e-16
3.76327e-14
1.45343e-12
2.42317e-11
9.64611e-11
7.62525e-10
1.04544e-09
5.88867e-10
8.24682e-11
4.31723e-09
3.49196e-10
8.86447e-10
1.31453e-09
2.33137e-09
3.7018e-10
3.45938e-12
0.0120013
6.30216e-35
1.12257e-27
2.49684e-20
2.04577e-16
3.27943e-14
1.0116e-12
6.15929e-12
3.21661e-11
1.65362e-10
1.59038e-10
8.24682e-11
8.24682e-11
1.86815e-10
4.62486e-10
1.15401e-09
1.16064e-09
1.07287e-10
0
0.00121224
)
;

boundaryField
{
    leftWall
    {
        type            zeroGradient;
    }
    rightWall
    {
        type            zeroGradient;
    }
    lowerWall
    {
        type            zeroGradient;
    }
    atmosphere
    {
        type            inletOutlet;
        inletValue      uniform 0;
        value           nonuniform List<scalar> 
46
(
-7.53281e-87
0
0
0
0
0
0
0
0
0
0
0
0
0
0
0
0
0
0
0
0
0
0
0
0
0
0
0
0
0
0
3.27943e-14
1.0116e-12
6.15929e-12
3.21661e-11
1.65362e-10
1.59038e-10
8.24682e-11
8.24682e-11
1.86815e-10
4.62486e-10
1.15401e-09
0
0
0
0.00121224
)
;
    }
    defaultFaces
    {
        type            empty;
    }
}


// ************************************************************************* //
