/*--------------------------------*- C++ -*----------------------------------*\
| =========                 |                                                 |
| \\      /  F ield         | OpenFOAM: The Open Source CFD Toolbox           |
|  \\    /   O peration     | Version:  v2012                                 |
|   \\  /    A nd           | Website:  www.openfoam.com                      |
|    \\/     M anipulation  |                                                 |
\*---------------------------------------------------------------------------*/
FoamFile
{
    version     2.0;
    format      ascii;
    class       volScalarField;
    location    "0.7";
    object      epsilon;
}
// * * * * * * * * * * * * * * * * * * * * * * * * * * * * * * * * * * * * * //

dimensions      [0 2 -3 0 0 0 0];


internalField   nonuniform List<scalar> 
2268
(
0.0203698
0.052036
0.0818536
0.10821
0.128066
0.143295
0.156546
0.169423
0.182812
0.196619
0.210365
0.223374
0.235072
0.244346
0.249287
0.247375
0.237158
0.217571
0.190429
0.161665
0.134544
0.113035
0.0844143
0.0251065
0.0374243
0.0506343
0.0624881
0.0720979
0.0798603
0.086715
0.093227
0.0996956
0.10609
0.112276
0.118076
0.123296
0.127583
0.130339
0.130972
0.129041
0.124026
0.116041
0.10621
0.095898
0.0868276
0.0909367
0.0307236
0.0338945
0.0440737
0.0536355
0.061528
0.0680437
0.0738243
0.0793014
0.0846309
0.0898175
0.0948005
0.0994884
0.103761
0.107426
0.110222
0.11187
0.112138
0.110789
0.107818
0.103647
0.0995492
0.0997835
0.127169
0.0319719
0.0321149
0.0409318
0.0495265
0.0568458
0.0630135
0.0685292
0.0737257
0.0787325
0.0835675
0.0882009
0.0925807
0.0966326
0.100245
0.103282
0.105617
0.107154
0.10784
0.107761
0.107364
0.108034
0.115739
0.165057
0.0305607
0.0308684
0.0387688
0.0467863
0.0539115
0.0600656
0.0655935
0.0707681
0.0757128
0.0804584
0.0849957
0.0893001
0.093334
0.0970395
0.100354
0.103247
0.105732
0.107896
0.11
0.112757
0.118118
0.13382
0.208161
0.029146
0.0299093
0.0369467
0.0446331
0.051789
0.0580959
0.0637625
0.0690279
0.07402
0.0787827
0.0833229
0.0876383
0.0917254
0.0955711
0.0991668
0.102548
0.105816
0.109174
0.113062
0.118571
0.128789
0.155016
0.266883
0.0277959
0.0290302
0.0353228
0.0428431
0.0501956
0.0567381
0.0625935
0.0679939
0.0730786
0.0779029
0.0824844
0.086841
0.0910043
0.0950024
0.0988699
0.102692
0.106634
0.110983
0.116328
0.124133
0.139066
0.18008
0.368564
0.0260669
0.0280488
0.0338995
0.0414717
0.0490817
0.0558629
0.0618929
0.0674228
0.0726046
0.0775014
0.0821336
0.0865381
0.0907814
0.0949295
0.0990538
0.103278
0.107803
0.112964
0.119426
0.128839
0.147166
0.204707
0.562532
1.5729
1.33542
1.85776
2.23642
2.53924
2.75204
2.86258
3.06765
3.34799
3.66387
3.98633
4.2956
4.56194
4.73089
4.6412
4.05418
3.00869
1.67845
0.307665
1.17645
2.00898
1.70581
1.72269
1.9827
1.96317
1.68491
1.63257
1.6496
1.71685
1.79213
1.84936
1.89476
1.93256
1.91104
1.73237
1.38906
0.935378
0.398777
1.25153
1.95216
1.912
3.43619
5.08881
4.15623
2.75381
2.13067
1.56872
1.42409
1.42222
1.43319
1.44767
1.47709
1.48348
1.3777
1.15823
0.883233
0.577441
1.31633
2.04303
3.21869
7.45178
4.2951
6.74788
7.72255
7.18328
2.58778
1.4674
1.31174
1.27613
1.27038
1.28972
1.30133
1.22355
1.0636
0.88342
0.707038
1.34942
2.40988
4.66299
3.21926
2.36175
4.04994
5.37629
11.2856
8.61736
2.49341
1.38339
1.20518
1.17626
1.18143
1.18488
1.11701
0.992667
0.871921
0.801331
1.32452
2.89055
2.86838
1.72339
1.41253
1.45686
1.92946
3.56368
7.23171
20.8373
2.51095
1.21761
1.12504
1.11569
1.09977
1.02912
0.927322
0.84536
0.859712
1.30183
2.59699
1.91575
1.42679
1.21426
1.16041
1.36993
2.02946
3.41502
9.89925
15.2465
2.00964
1.105
1.07635
1.03476
0.953737
0.863779
0.80836
0.898043
1.36279
2.26304
1.60315
1.24415
1.08555
1.07485
1.20076
1.66294
2.36635
6.85979
15.2355
4.1375
1.11083
1.04622
0.983066
0.891092
0.804085
0.76606
0.919367
0.0237245
0.0260073
0.0321885
0.0403318
0.0483336
0.0553179
0.0614792
0.0671078
0.0723678
0.0773338
0.0820262
0.0865034
0.09087
0.0952404
0.099735
0.104518
0.10981
0.115953
0.123567
0.133986
0.151765
0.193828
0.309989
0.025107
0.0262895
0.0328217
0.0416262
0.0493123
0.0559294
0.0619378
0.0675083
0.0728189
0.0779449
0.08271
0.0872176
0.0916511
0.0961993
0.101062
0.106415
0.112404
0.119328
0.127577
0.137582
0.150935
0.172435
0.208794
0.11614
0.0746717
0.059806
0.0529988
0.0522239
0.0569987
0.0625382
0.0679038
0.0732023
0.0786576
0.0834094
0.0879312
0.0925195
0.0974129
0.102723
0.1084
0.114662
0.122
0.130559
0.140051
0.15097
0.165197
0.184679
0.163861
0.0962723
0.0864343
0.0809254
0.0775142
0.0788702
0.0829637
0.0888181
0.0947657
0.093745
0.0871389
0.0889802
0.0929601
0.0976444
0.102916
0.108968
0.116247
0.124595
0.133442
0.142247
0.151822
0.163834
0.180005
0.176065
0.108454
0.0991543
0.095725
0.093129
0.0926698
0.0945187
0.0985421
0.103796
0.107211
0.109147
0.11232
0.116905
0.121595
0.123039
0.119124
0.118471
0.125147
0.133749
0.142453
0.151992
0.165788
0.184288
0.181873
0.111957
0.103713
0.101838
0.100921
0.100997
0.102378
0.10517
0.108934
0.112322
0.115096
0.118822
0.124344
0.13066
0.135424
0.137616
0.140489
0.14754
0.157766
0.168698
0.178647
0.187008
0.192149
0.185533
0.113241
0.104622
0.103574
0.104106
0.105358
0.107331
0.110096
0.113471
0.116857
0.119978
0.123513
0.128108
0.133489
0.138758
0.143895
0.150919
0.162223
0.176773
0.191695
0.207379
0.231954
0.28441
0.189652
0.113486
0.103749
0.102869
0.104292
0.106603
0.10948
0.112853
0.116597
0.120407
0.12407
0.12783
0.132093
0.136975
0.142349
0.148501
0.15662
0.168106
0.183073
0.20114
0.224014
0.256238
0.300558
0.192596
0.112759
0.101917
0.100847
0.102658
0.105652
0.109291
0.113374
0.11775
0.122217
0.126605
0.130973
0.135547
0.140532
0.146082
0.152548
0.16071
0.171546
0.185692
0.203676
0.227056
0.257971
0.294767
0.194368
0.111227
0.0994681
0.0980782
0.0999578
0.103284
0.107409
0.112045
0.11701
0.12213
0.127258
0.132368
0.137565
0.143009
0.148891
0.155522
0.163448
0.173411
0.186156
0.202437
0.223275
0.249601
0.28032
0.194715
0.109039
0.0965915
0.0948584
0.0966292
0.100036
0.104386
0.109355
0.11474
0.120378
0.126133
0.13194
0.13782
0.143862
0.150209
0.157096
0.164922
0.174258
0.185786
0.200236
0.218369
0.240743
0.267361
0.193506
0.106338
0.0934244
0.0913773
0.092946
0.0962702
0.100647
0.105744
0.111358
0.117335
0.12355
0.129918
0.136413
0.143063
0.149952
0.157244
0.165229
0.174349
0.185174
0.198341
0.214497
0.234235
0.258365
0.190799
0.103259
0.0900835
0.0877708
0.0891045
0.0922429
0.0965076
0.101572
0.107245
0.113387
0.119886
0.126655
0.133644
0.140845
0.148294
0.156103
0.16448
0.173765
0.184417
0.196977
0.212025
0.230231
0.25278
0.186837
0.0999384
0.0866769
0.0841525
0.0852454
0.0881505
0.0922082
0.097122
0.10272
0.10888
0.115507
0.122525
0.129877
0.137538
0.14552
0.153893
0.162812
0.172536
0.183431
0.195955
0.210633
0.228157
0.249782
0.181924
0.0965014
0.0833028
0.080624
0.0814841
0.084131
0.0879349
0.0926186
0.0980392
0.104103
0.110732
0.117866
0.125457
0.133479
0.141933
0.150867
0.160397
0.170723
0.182141
0.195038
0.209891
0.227365
0.248629
0.176238
0.0930297
0.0800528
0.0772756
0.0779181
0.0802963
0.0838166
0.0882274
0.0934066
0.0992859
0.10582
0.112964
0.120688
0.128974
0.137826
0.147281
0.15743
0.168436
0.18054
0.194074
0.20947
0.227347
0.24873
0.170101
0.0896404
0.0770179
0.0741863
0.0746269
0.0767347
0.0799558
0.084066
0.0889664
0.0946104
0.100974
0.108048
0.115819
0.124284
0.133457
0.143376
0.154121
0.165825
0.178696
0.193022
0.209195
0.227783
0.249673
0.163899
0.0864763
0.0742789
0.0714217
0.0716727
0.0735124
0.0764283
0.0802236
0.084822
0.0901992
0.0963539
0.103296
0.111044
0.119618
0.129044
0.139368
0.150667
0.163061
0.176729
0.191929
0.209019
0.228521
0.251206
0.15798
0.0836603
0.0719049
0.0690335
0.0691011
0.0706759
0.0732862
0.0767613
0.0810467
0.0861387
0.0920578
0.0988367
0.106515
0.115139
0.124761
0.135436
0.147247
0.160305
0.174775
0.190888
0.208973
0.229512
0.253186
0.152634
0.0812881
0.0699509
0.0670587
0.0669421
0.0682536
0.0705604
0.0737161
0.0776856
0.0824843
0.088153
0.0947465
0.102328
0.110965
0.120733
0.131715
0.143997
0.157694
0.172958
0.19
0.209123
0.230766
0.255541
0.148074
0.0794281
0.068454
0.0655197
0.0652109
0.066258
0.0682639
0.0711037
0.0747596
0.0792638
0.0846756
0.0910706
0.0985347
0.107161
0.117045
0.128292
0.141012
0.155323
0.17137
0.189346
0.209526
0.232306
0.258231
0.144441
0.0781207
0.0674331
0.0644248
0.0639097
0.0646879
0.0663942
0.0689225
0.0722693
0.0764816
0.0816348
0.0878238
0.0951565
0.10375
0.113728
0.125214
0.138339
0.153237
0.170054
0.188965
0.210211
0.23414
0.261222
0.141812
0.0773822
0.0668899
0.0637687
0.0630284
0.0635304
0.0649367
0.067157
0.0701997
0.0741236
0.0790183
0.0849959
0.0921853
0.100728
0.110773
0.122472
0.135977
0.151436
0.169003
0.188843
0.211159
0.236243
0.264477
0.140209
0.0772039
0.0668101
0.0635339
0.062547
0.062763
0.0638672
0.0657815
0.0685237
0.0721619
0.0767974
0.0825574
0.0895903
0.0980611
0.108146
0.120024
0.133872
0.149862
0.168153
0.188907
0.212294
0.23854
0.267928
0.139601
0.0775583
0.0671664
0.0636926
0.0624368
0.062356
0.0631544
0.0647632
0.0672067
0.0705597
0.0749325
0.0804654
0.0873242
0.0956964
0.105784
0.117797
0.131942
0.148413
0.167387
0.189024
0.213474
0.240892
0.271454
0.139939
0.0784059
0.0679219
0.0642092
0.062663
0.0622749
0.0627633
0.0640657
0.0662102
0.0692754
0.0733785
0.0786697
0.0853304
0.0935683
0.103612
0.115701
0.130074
0.146956
0.166545
0.18901
0.214487
0.243085
0.274858
0.141154
0.0796999
0.069034
0.0650436
0.0631875
0.0624827
0.0626572
0.0636519
0.0654953
0.0682676
0.0720896
0.077119
0.0835493
0.0916066
0.101544
0.113631
0.128141
0.145332
0.165435
0.188635
0.215071
0.244819
0.277852
0.143169
0.0813905
0.0704581
0.0661546
0.0639718
0.0629429
0.0628012
0.0634868
0.0650264
0.0674985
0.0710244
0.0757661
0.081926
0.0897451
0.0994983
0.111484
0.126011
0.143376
0.163847
0.187643
0.214919
0.245742
0.280033
0.145906
0.0834299
0.0721519
0.0675034
0.0649799
0.0636223
0.0631638
0.0635407
0.064774
0.0669377
0.0701502
0.0745742
0.0804167
0.0879296
0.0974056
0.10917
0.123564
0.140928
0.161574
0.185766
0.213697
0.245453
0.280939
0.149298
0.0857794
0.074081
0.0690578
0.0661821
0.0644935
0.0637203
0.0637908
0.064717
0.0665648
0.0694464
0.0735204
0.0789943
0.0861255
0.0952192
0.106622
0.120707
0.137856
0.158432
0.182756
0.211076
0.243529
0.28005
0.153319
0.0884192
0.0762245
0.0707963
0.0675578
0.0655379
0.0644547
0.0642241
0.0648454
0.0663725
0.0689072
0.0726001
0.0776537
0.0843248
0.092924
0.103813
0.117391
0.134078
0.15429
0.178412
0.206765
0.239565
0.276828
0.158028
0.0913625
0.0785829
0.0727134
0.0690991
0.0667483
0.0653623
0.0648394
0.065162
0.0663678
0.0685443
0.0718293
0.0764148
0.0825498
0.0905431
0.100761
0.113621
0.129576
0.149091
0.172615
0.200556
0.233231
0.270783
0.163615
0.0946723
0.0811874
0.0748248
0.0708147
0.0681316
0.0664515
0.0656491
0.0656844
0.0665746
0.0683883
0.0712462
0.075324
0.0808565
0.088141
0.0975392
0.109474
0.124417
0.142876
0.165361
0.192368
0.224325
0.261536
0.170448
0.0984833
0.0841118
0.0771738
0.072733
0.0697112
0.067747
0.066682
0.0664474
0.067035
0.0684903
0.0709124
0.0744558
0.0793343
0.0858251
0.0942728
0.105091
0.118757
0.135802
0.156788
0.182285
0.212832
0.248907
0.179163
0.103041
0.0874895
0.079838
0.0749051
0.0715292
0.0692908
0.0679851
0.0675055
0.0678121
0.0689236
0.0709136
0.0739115
0.0781044
0.0837414
0.0911383
0.100683
0.112838
0.128137
0.147173
0.170578
0.198991
0.233016
0.190767
0.108754
0.0915325
0.0829318
0.0774028
0.0736448
0.0711441
0.0696268
0.0689357
0.0689929
0.0697861
0.0713614
0.07382
0.0773189
0.0820726
0.0883587
0.0965245
0.106995
0.120278
0.136963
0.157713
0.183244
0.214282
0.206928
0.116294
0.0965508
0.086596
0.0803065
0.0761292
0.0733868
0.0716996
0.0708426
0.0706929
0.0712049
0.072396
0.0743388
0.0771582
0.081031
0.0861898
0.0929303
0.101621
0.112713
0.126755
0.144392
0.166367
0.193493
0.230682
0.1268
0.102936
0.0909436
0.0836693
0.0790501
0.0761157
0.0743249
0.0733651
0.0730638
0.0733426
0.074192
0.0756575
0.0778324
0.0808554
0.0849118
0.0902386
0.0971348
0.105975
0.117225
0.131462
0.149385
0.171821
0.268383
0.14218
0.110984
0.0959022
0.0874438
0.0824515
0.0794469
0.077663
0.0766884
0.0763051
0.0764087
0.0769685
0.0780068
0.0795885
0.0818156
0.0848267
0.0887997
0.0939593
0.100589
0.10905
0.119803
0.133434
0.150687
0.336746
0.165184
0.120132
0.100847
0.0913763
0.0863461
0.0835351
0.0819362
0.0810651
0.0806829
0.0806764
0.0810047
0.0816737
0.0827238
0.0842238
0.0862686
0.0889795
0.0925092
0.0970495
0.102846
0.110219
0.119591
0.131529
0.500123
0.195154
0.12641
0.104008
0.0949774
0.0907848
0.0886382
0.0874763
0.0868511
0.08656
0.0865104
0.0866664
0.0870262
0.0876106
0.088459
0.089626
0.0911813
0.0932112
0.0958228
0.0991521
0.103377
0.108737
0.115568
1.08063
0.19129
0.117486
0.102576
0.097959
0.0961234
0.095258
0.0948057
0.0945624
0.0944428
0.0944094
0.0944471
0.0945537
0.0947357
0.0950056
0.0953815
0.095886
0.0965465
0.0973959
0.0984751
0.0998361
0.101548
0.103709
0.583195
0.550483
0.625395
0.978533
0.251353
0.27465
0.3185
0.425011
0.205964
0.223529
0.249835
0.292852
0.199535
0.217404
0.242855
0.276852
0.208631
0.234073
0.270897
0.308652
0.216614
0.245679
0.289637
0.331403
0.343974
0.369557
0.371245
0.3863
0.333757
0.348051
0.356057
0.372141
0.319286
0.331767
0.345711
0.374715
0.303527
0.318875
0.337468
0.366688
0.2906
0.307892
0.328589
0.355285
0.281223
0.299052
0.320142
0.344876
0.274777
0.292203
0.312585
0.33558
0.270798
0.287432
0.306659
0.327987
0.268865
0.284719
0.3028
0.32269
0.268544
0.283844
0.30105
0.319864
0.269451
0.284499
0.301206
0.319377
0.27129
0.286375
0.302954
0.320909
0.273831
0.289177
0.305918
0.323995
0.276899
0.29264
0.309716
0.328114
0.280361
0.296548
0.314025
0.332808
0.284126
0.300753
0.318618
0.337756
0.288131
0.305166
0.323371
0.342791
0.292317
0.309731
0.32823
0.347857
0.296589
0.314375
0.33315
0.352946
0.300783
0.318965
0.338035
0.358013
0.304637
0.323262
0.342689
0.362915
0.307767
0.326901
0.34677
0.367354
0.309671
0.329373
0.349778
0.370845
0.309758
0.330044
0.35105
0.372711
0.30739
0.328206
0.349807
0.372116
0.301938
0.32314
0.345233
0.368132
0.292861
0.314197
0.336558
0.359861
0.2798
0.300905
0.323179
0.346545
0.262695
0.283099
0.3048
0.327746
0.241881
0.261021
0.281563
0.303479
0.218082
0.235306
0.253994
0.274162
0.192532
0.207198
0.223306
0.240928
0.166861
0.178442
0.19133
0.205651
0.142841
0.151021
0.160247
0.170677
0.122062
0.126789
0.132181
0.138385
0.105742
0.107218
0.108905
0.110868
1.63023
1.68352
1.26316
1.0294
0.979405
1.09056
1.24768
1.47445
1.98834
4.62519
19.1095
5.33273
1.18041
1.01581
0.93491
0.835061
0.743724
0.718005
0.922443
0.775932
0.808384
0.750996
0.753451
0.828055
1.66387
1.84407
1.87091
2.39217
5.07015
17.7821
5.82726
1.306
1.03718
0.924807
0.801075
0.682011
0.65232
0.898726
0.396308
0.499786
0.487026
0.545254
1.61363
3.21525
3.42636
4.33314
5.56869
7.04877
14.5278
8.11644
1.32244
1.10651
0.987746
0.81315
0.645714
0.594065
0.816794
0.334731
0.381591
0.379785
0.406637
3.20396
4.82389
5.79557
6.97786
7.29665
8.79078
14.122
3.16845
1.42409
1.22264
1.09361
0.884232
0.629049
0.549954
0.683628
0.338423
0.338586
0.348727
0.373163
2.28182
5.97828
6.96292
7.42426
8.28405
10.7839
15.2918
1.55686
1.42016
1.38443
1.23184
0.94957
0.671435
0.539208
0.532626
0.340263
0.326445
0.337202
0.364633
0.482565
5.11448
7.04073
7.44574
8.06878
10.1701
5.6864
1.63616
1.52005
1.57846
1.44396
1.04481
0.825589
0.573852
0.399778
0.350032
0.338624
0.348443
0.374689
0.421491
1.73361
5.80133
6.36966
6.33117
6.75875
1.58464
1.5289
1.63821
1.78175
1.57393
1.18448
0.960112
0.617795
0.34
0.402274
0.363343
0.367351
0.383677
0.405778
0.48402
3.76101
4.78557
4.66316
4.56539
1.489
1.53221
1.75338
1.94149
1.55408
1.25546
0.962153
0.6391
0.373038
0.458402
0.396046
0.387446
0.398021
0.414798
0.441177
0.734291
3.37975
3.56614
1.47385
1.40509
1.50995
1.81812
1.93396
1.46495
1.283
0.896794
0.613539
0.475377
0.447104
0.556177
0.418924
0.417594
0.432585
0.456374
0.513795
1.24936
1.5336
1.25351
1.30182
1.43876
1.80013
1.88979
1.59719
1.36325
0.736146
0.560001
0.5263
0.417762
0.591745
0.523038
0.452436
0.462377
0.491005
0.545493
0.690124
1.00746
1.10595
1.18439
1.36608
1.75759
1.87672
1.846
1.24696
0.635064
0.521556
0.56413
0.394111
0.514941
0.673715
0.532383
0.504715
0.533458
0.595113
0.70889
0.8669
0.984856
1.06401
1.28965
1.71203
1.93717
2.17689
1.61314
0.641165
0.498711
0.589183
0.377758
0.458728
0.578638
0.719941
0.599874
0.585164
0.628673
0.705694
0.815867
0.913257
1.00546
1.265
1.82748
2.25398
2.91921
2.27972
0.571407
0.467817
0.603384
0.365848
0.426841
0.506605
0.607793
0.693489
0.680758
0.645399
0.725997
0.82767
0.912962
1.02183
1.56166
2.96625
3.091
4.66573
1.56414
0.482615
0.423636
0.623389
0.357697
0.409262
0.469706
0.537132
0.602888
0.654112
0.66603
0.754612
0.94584
1.41417
2.52772
3.33054
3.30928
3.96977
5.96488
1.13035
0.462392
0.408089
0.670069
0.353013
0.400231
0.452785
0.50822
0.561652
0.615631
0.705124
0.931465
1.3236
1.93287
2.74638
3.11264
3.28443
4.43787
6.34988
1.5001
0.467192
0.404122
0.705925
0.3515
0.397121
0.447179
0.500433
0.555788
0.621557
0.7383
0.987471
1.40195
1.98645
2.54592
2.789
3.15533
4.50114
6.18339
2.918
0.495607
0.410648
0.725293
0.352763
0.398481
0.448909
0.503784
0.564411
0.640812
0.766378
0.997929
1.36877
1.84944
2.24735
2.47383
3.02126
4.4
5.91941
3.87692
0.681839
0.426339
0.725105
0.356166
0.403018
0.455326
0.513405
0.579241
0.661491
0.784181
0.986202
1.29058
1.65557
1.95054
2.2136
2.85935
4.1604
5.66196
3.92556
0.659069
0.445525
0.724588
0.360928
0.409371
0.464066
0.525614
0.595798
0.680633
0.795472
0.964636
1.20074
1.46918
1.70073
1.98429
2.63515
3.844
5.30402
3.20792
0.589398
0.460196
0.743796
0.366334
0.416307
0.473115
0.537432
0.61051
0.695753
0.801523
0.940909
1.11935
1.31514
1.50323
1.78097
2.38426
3.47404
4.8403
1.84197
0.564231
0.477947
0.771358
0.37188
0.422966
0.481101
0.546887
0.621006
0.704796
0.801627
0.916871
1.05185
1.19653
1.35311
1.61113
2.1451
3.07997
4.32509
1.29776
0.548666
0.497984
0.796252
0.377316
0.428944
0.487417
0.553172
0.6264
0.707031
0.795298
0.891984
0.996629
1.10765
1.24198
1.47705
1.9409
2.7283
3.83843
1.8014
0.559296
0.518265
0.808461
0.382596
0.43423
0.492123
0.556489
0.627145
0.703203
0.783246
0.865865
0.95037
1.0406
1.16016
1.37515
1.78359
2.468
3.43679
2.79354
0.719599
0.539739
0.804032
0.387783
0.439064
0.495726
0.557725
0.624617
0.695145
0.767296
0.839057
0.91038
0.98832
1.09862
1.29866
1.67042
2.29374
3.1732
3.21721
1.36808
0.567344
0.77315
0.392947
0.443766
0.498909
0.558063
0.620601
0.6852
0.749893
0.812966
0.875365
0.945901
1.05021
1.23926
1.58645
2.16705
2.96356
3.24336
1.93964
0.643008
0.726986
0.398062
0.448578
0.502302
0.558639
0.616835
0.675664
0.733537
0.789434
0.845306
0.910773
1.01023
1.18946
1.51499
2.0527
2.76344
3.1249
2.20347
0.803058
0.692905
0.402928
0.453533
0.506283
0.560286
0.614676
0.668389
0.720324
0.77024
0.820915
0.882149
0.976478
1.14467
1.44572
1.93427
2.56477
2.94443
2.22542
0.80906
0.688546
0.407112
0.458366
0.510848
0.563356
0.614892
0.664539
0.711663
0.756713
0.803055
0.860231
0.948522
1.10336
1.37475
1.80498
2.35018
2.69847
2.01807
0.765656
0.716334
0.40993
0.462463
0.515543
0.567633
0.61756
0.664482
0.708131
0.749489
0.792266
0.845442
0.926778
1.06592
1.30245
1.66482
2.11042
2.40099
1.59145
0.733994
0.842567
0.410467
0.464861
0.519436
0.572301
0.622034
0.667763
0.709434
0.748379
0.788433
0.837808
0.911603
1.03345
1.23193
1.52172
1.86158
2.10942
1.29528
0.731801
0.954299
0.407638
0.464302
0.521162
0.575963
0.626961
0.673115
0.714402
0.752312
0.790606
0.836588
0.902725
1.00691
1.16779
1.38974
1.64133
1.86233
1.24665
0.744242
0.892556
0.400282
0.459328
0.519006
0.576724
0.630343
0.678506
0.721029
0.759335
0.796903
0.840077
0.898904
0.986368
1.11352
1.2789
1.46275
1.64907
1.3597
0.77701
0.794089
0.387338
0.448438
0.511053
0.572319
0.629646
0.681234
0.726548
0.766681
0.804589
0.84567
0.897884
0.970446
1.06953
1.19124
1.32415
1.46746
1.46995
0.932699
0.700414
0.368093
0.430288
0.495403
0.560332
0.622007
0.678081
0.727494
0.770746
0.810124
0.850143
0.896905
0.956745
1.03307
1.12164
1.21589
1.326
1.43024
1.09363
0.663579
0.34222
0.403882
0.470453
0.538518
0.604561
0.665636
0.720023
0.767577
0.809794
0.850025
0.892861
0.942638
1.00096
1.06336
1.12746
1.2055
1.31932
1.14
0.681888
0.310107
0.368958
0.435311
0.50528
0.574979
0.640875
0.700561
0.75314
0.79934
0.841329
0.882334
0.925427
0.970976
1.01393
1.05567
1.11066
1.20332
1.19
0.773594
0.272743
0.326744
0.390293
0.460329
0.532258
0.60199
0.666497
0.724129
0.774766
0.819662
0.860935
0.900617
0.938998
0.97204
1.00175
1.0432
1.13151
1.19586
0.902798
0.231986
0.278863
0.337195
0.40547
0.477931
0.54982
0.617753
0.679484
0.734072
0.781882
0.824211
0.862552
0.897629
0.92828
0.954205
0.992231
1.0921
1.16889
0.868432
0.190335
0.227731
0.27871
0.344979
0.417504
0.489812
0.559113
0.62305
0.68001
0.729495
0.772062
0.808933
0.841545
0.871003
0.898822
0.948576
1.12305
1.30945
1.01003
0.150428
0.175626
0.216428
0.282307
0.360846
0.43333
0.502048
0.565958
0.623164
0.672373
0.71332
0.746745
0.774351
0.798481
0.821651
0.887992
1.3822
1.51579
1.11725
0.114783
0.123997
0.143959
0.196615
0.319713
0.396015
0.463366
0.525763
0.581765
0.629665
0.668526
0.698242
0.719069
0.7288
0.70745
0.511452
0.81336
0.761704
1.67801
)
;

boundaryField
{
    leftWall
    {
        lowReCorrection 0;
        blending        stepwise;
        n               2;
        type            epsilonWallFunction;
        value           nonuniform List<scalar> 
50
(
0.0203698
0.0251065
0.0307236
0.0319719
0.0305607
0.029146
0.0277959
0.0260669
0.0237245
0.025107
0.11614
0.163861
0.176065
0.181873
0.185533
0.189652
0.192596
0.194368
0.194715
0.193506
0.190799
0.186837
0.181924
0.176238
0.170101
0.163899
0.15798
0.152634
0.148074
0.144441
0.141812
0.140209
0.139601
0.139939
0.141154
0.143169
0.145906
0.149298
0.153319
0.158028
0.163615
0.170448
0.179163
0.190767
0.206928
0.230682
0.268383
0.336746
0.500123
1.08063
)
;
    }
    rightWall
    {
        lowReCorrection 0;
        blending        stepwise;
        n               2;
        type            epsilonWallFunction;
        value           nonuniform List<scalar> 
50
(
0.307665
0.398777
0.577441
0.707038
0.801331
0.859712
0.898043
0.919367
0.922443
0.898726
0.816794
0.683628
0.532626
0.399778
0.34
0.373038
0.475377
0.5263
0.56413
0.589183
0.603384
0.623389
0.670069
0.705925
0.725293
0.725105
0.724588
0.743796
0.771358
0.796252
0.808461
0.804032
0.77315
0.726986
0.692905
0.688546
0.716334
0.842567
0.954299
0.892556
0.794089
0.700414
0.663579
0.681888
0.773594
0.902798
0.868432
1.01003
1.11725
1.67801
)
;
    }
    lowerWall
    {
        lowReCorrection 0;
        blending        stepwise;
        n               2;
        type            epsilonWallFunction;
        value           nonuniform List<scalar> 
62
(
0.0203698
0.052036
0.0818536
0.10821
0.128066
0.143295
0.156546
0.169423
0.182812
0.196619
0.210365
0.223374
0.235072
0.244346
0.249287
0.247375
0.237158
0.217571
0.190429
0.161665
0.134544
0.113035
0.0844143
0.0844143
0.0909367
0.127169
0.165057
0.208161
0.266883
0.368564
0.562532
0.583195
0.550483
0.625395
0.978533
1.5729
1.17645
1.25153
1.31633
1.34942
1.32452
1.30183
1.36279
1.5729
1.33542
1.85776
2.23642
2.53924
2.75204
2.86258
3.06765
3.34799
3.66387
3.98633
4.2956
4.56194
4.73089
4.6412
4.05418
3.00869
1.67845
0.307665
)
;
    }
    atmosphere
    {
        type            inletOutlet;
        inletValue      uniform 0.1;
        value           nonuniform List<scalar> 
46
(
1.08063
0.1
0.1
0.1
0.1
0.1
0.1
0.1
0.1
0.1
0.1
0.1
0.1
0.1
0.1
0.1
0.1
0.1
0.1
0.1
0.1
0.1
0.1
0.1
0.1
0.1
0.1
0.1
0.1
0.1
0.1
0.319713
0.396015
0.463366
0.525763
0.581765
0.629665
0.668526
0.698242
0.719069
0.7288
0.70745
0.1
0.1
0.1
1.67801
)
;
    }
    defaultFaces
    {
        type            empty;
    }
}


// ************************************************************************* //
