/*--------------------------------*- C++ -*----------------------------------*\
| =========                 |                                                 |
| \\      /  F ield         | OpenFOAM: The Open Source CFD Toolbox           |
|  \\    /   O peration     | Version:  v2012                                 |
|   \\  /    A nd           | Website:  www.openfoam.com                      |
|    \\/     M anipulation  |                                                 |
\*---------------------------------------------------------------------------*/
FoamFile
{
    version     2.0;
    format      ascii;
    class       volScalarField;
    location    "0.7";
    object      k;
}
// * * * * * * * * * * * * * * * * * * * * * * * * * * * * * * * * * * * * * //

dimensions      [0 2 -2 0 0 0 0];


internalField   nonuniform List<scalar> 
2268
(
0.0034834
0.00530039
0.00716091
0.0086149
0.00963851
0.0103901
0.0110254
0.0116305
0.0122448
0.0128607
0.0134586
0.0140118
0.0144988
0.0148789
0.0150778
0.0149958
0.0145732
0.0137551
0.0125869
0.0112933
0.00999764
0.00892182
0.00730202
0.00538356
0.0101028
0.0141844
0.0172477
0.0195893
0.0214798
0.0231297
0.0246683
0.026136
0.0275526
0.0289051
0.0301536
0.0312473
0.0321125
0.0326459
0.0326746
0.0320205
0.0306071
0.0284889
0.025977
0.0234281
0.0196289
0.0126523
0.0061636
0.0122403
0.01693
0.0206914
0.0237676
0.0263547
0.028647
0.0307558
0.0327419
0.0346293
0.0364079
0.0380408
0.0394756
0.0406326
0.0413995
0.0416322
0.0411687
0.0399294
0.0379358
0.0353423
0.032253
0.0272204
0.015826
0.00633517
0.0131089
0.0181157
0.0223849
0.0260609
0.0292443
0.0320733
0.0346583
0.0370677
0.0393313
0.0414448
0.0433768
0.0450784
0.0464756
0.0474648
0.0479294
0.0477435
0.0468255
0.0451861
0.0428681
0.0396109
0.0339242
0.018843
0.00614723
0.0131873
0.0184042
0.0231257
0.0273728
0.0311156
0.0344421
0.0374606
0.0402483
0.0428439
0.04525
0.0474422
0.0493785
0.0509944
0.0522025
0.0529101
0.0530245
0.0524832
0.0512777
0.0493539
0.0462302
0.0401461
0.0220342
0.00594225
0.0126914
0.0180738
0.0232619
0.0280842
0.0323683
0.0361606
0.0395766
0.0427079
0.045603
0.0482715
0.0506971
0.0528466
0.0546677
0.0560902
0.0570433
0.0574594
0.0572904
0.0565171
0.0550315
0.0522625
0.0461506
0.0260965
0.00575196
0.0119132
0.0173841
0.0230277
0.0284327
0.0332258
0.0374395
0.0412118
0.0446518
0.0478167
0.0507209
0.0533567
0.0557016
0.0577161
0.0593468
0.0605423
0.0612519
0.0614352
0.0610673
0.0600144
0.0577148
0.0520453
0.0324669
0.00550937
0.0110693
0.0166078
0.0226828
0.0286043
0.0338343
0.038402
0.0424783
0.0461878
0.0495918
0.052706
0.0555322
0.0580571
0.0602539
0.0620842
0.0635162
0.0645055
0.0650134
0.0650103
0.0643489
0.0625443
0.0578953
0.0429116
0.0509728
0.0460459
0.0576903
0.0654849
0.0713825
0.0750924
0.0766501
0.080058
0.0847804
0.0900166
0.0952813
0.100219
0.104455
0.10719
0.105872
0.0965773
0.0790034
0.0534355
0.0216673
0.0751186
0.0892564
0.0901886
0.107364
0.131821
0.139724
0.134697
0.135852
0.141593
0.150653
0.160208
0.169202
0.177868
0.185846
0.187808
0.174702
0.144778
0.100459
0.0360165
0.0783544
0.0934059
0.101147
0.173024
0.252
0.242804
0.209762
0.191492
0.17593
0.17886
0.188464
0.198083
0.206942
0.21525
0.217263
0.201962
0.168117
0.118379
0.0462956
0.0804226
0.0995219
0.140514
0.272549
0.216257
0.293127
0.347393
0.365236
0.232966
0.198299
0.202489
0.211224
0.219801
0.227523
0.228847
0.212432
0.178041
0.128442
0.0530768
0.0814012
0.114113
0.18913
0.179263
0.157836
0.218283
0.258153
0.416939
0.379343
0.243655
0.21558
0.217736
0.225369
0.232278
0.232228
0.215023
0.181132
0.133409
0.0577069
0.0798977
0.133491
0.15377
0.130759
0.121267
0.123323
0.141149
0.19069
0.29589
0.604923
0.266439
0.224079
0.228432
0.233939
0.231505
0.213282
0.180834
0.135304
0.0604283
0.0786743
0.130861
0.13774
0.128798
0.120238
0.114847
0.122712
0.143824
0.184474
0.353984
0.619754
0.283924
0.231479
0.234572
0.228629
0.209067
0.178128
0.1352
0.0621192
0.0816492
0.139183
0.145733
0.134602
0.123702
0.1155
0.117413
0.132673
0.153289
0.277737
0.607794
0.43097
0.237408
0.233994
0.224476
0.203727
0.173805
0.133524
0.0629593
0.00517033
0.00983622
0.0156155
0.0223723
0.0289426
0.034669
0.0396298
0.0440474
0.048069
0.0517697
0.05517
0.0582693
0.0610575
0.0635233
0.0656478
0.0674176
0.068796
0.0697393
0.0701974
0.0699779
0.0686786
0.0654685
0.056918
0.00532915
0.00998227
0.0159538
0.0231375
0.0297529
0.0354979
0.040583
0.045194
0.0494871
0.0535222
0.0572015
0.060518
0.0635127
0.0662241
0.0686801
0.0708604
0.0726914
0.0741336
0.0751608
0.0756061
0.0752977
0.0744616
0.0737244
0.0147943
0.0254075
0.0279612
0.0290246
0.0314835
0.0362179
0.0410029
0.0454701
0.0497519
0.0540643
0.0579169
0.0614106
0.0646527
0.0676874
0.0704787
0.0728959
0.0749496
0.0767344
0.0782099
0.07917
0.0795381
0.0797286
0.0805755
0.0186961
0.0347372
0.0415135
0.0450459
0.0478727
0.0519082
0.0565746
0.0614531
0.0654632
0.0644119
0.060411
0.0621437
0.0649725
0.0678566
0.0706007
0.0731556
0.0755941
0.0779046
0.0797745
0.0809585
0.0815769
0.0822391
0.0839314
0.0196139
0.0402407
0.0496236
0.0552257
0.0591527
0.0629365
0.0669958
0.0713488
0.0754309
0.077764
0.0790968
0.081381
0.0842161
0.0864327
0.08589
0.0810832
0.0775228
0.0784277
0.0800555
0.0811467
0.0817175
0.0825947
0.0854954
0.020095
0.0429718
0.054218
0.0613869
0.0665673
0.070924
0.0750205
0.0790567
0.0828446
0.0858382
0.088239
0.0910172
0.0943724
0.097526
0.099226
0.099153
0.099254
0.101175
0.103844
0.10564
0.105215
0.101236
0.0899922
0.0203747
0.0445117
0.0567919
0.0651322
0.0714351
0.0766194
0.0811956
0.0854166
0.0892957
0.0926574
0.0955556
0.0984394
0.101554
0.104632
0.107196
0.109322
0.112026
0.11615
0.120894
0.124579
0.126748
0.129283
0.136726
0.0206837
0.0453192
0.0582229
0.0673211
0.0744613
0.080416
0.0856142
0.0902961
0.0945471
0.098336
0.101687
0.10481
0.107901
0.11097
0.113938
0.116966
0.120598
0.125275
0.130719
0.136345
0.142125
0.14871
0.155823
0.0209026
0.045786
0.0589939
0.0685137
0.0761904
0.0827241
0.0884807
0.0936686
0.0983863
0.102654
0.106492
0.110005
0.113335
0.11658
0.119814
0.123212
0.127112
0.13183
0.137399
0.143666
0.150654
0.158302
0.165135
0.0210357
0.0460068
0.0593067
0.0690177
0.0769949
0.0839066
0.0900807
0.0956985
0.100853
0.105578
0.109894
0.113858
0.117563
0.121108
0.124601
0.128196
0.13213
0.13666
0.141945
0.148027
0.154889
0.162253
0.168966
0.0210678
0.045991
0.0592457
0.0689973
0.0771082
0.0842325
0.0906786
0.096611
0.102115
0.107228
0.111969
0.116368
0.120483
0.124387
0.128172
0.131962
0.135938
0.140312
0.145279
0.150957
0.157354
0.164244
0.171056
0.0209869
0.0457369
0.0588603
0.0685572
0.0766874
0.0839002
0.0904944
0.096627
0.10238
0.107792
0.112878
0.117658
0.122161
0.126436
0.130548
0.134593
0.13871
0.143076
0.147877
0.153258
0.159274
0.165844
0.172841
0.0207959
0.045258
0.0581965
0.0677801
0.0758549
0.0830655
0.0897108
0.0959453
0.101852
0.10747
0.112818
0.117907
0.122752
0.127381
0.131838
0.136196
0.14056
0.145076
0.149907
0.1552
0.161046
0.167482
0.174626
0.0205109
0.0445849
0.0573066
0.0667411
0.0747127
0.0818603
0.0884824
0.0947391
0.100717
0.106459
0.111988
0.117312
0.122441
0.12739
0.132189
0.136891
0.141578
0.146367
0.151395
0.156799
0.162686
0.169158
0.176433
0.0201528
0.0437615
0.0562495
0.0655134
0.0733509
0.0803943
0.0869427
0.0931597
0.09914
0.104936
0.110573
0.116063
0.121415
0.126639
0.131757
0.136807
0.141854
0.14699
0.152331
0.157995
0.164093
0.170748
0.17819
0.0197353
0.0428478
0.0550869
0.0641676
0.0718515
0.0787628
0.0852014
0.0913355
0.0972663
0.103055
0.108738
0.114332
0.119848
0.125297
0.130695
0.136075
0.141486
0.147003
0.15272
0.15874
0.165167
0.172121
0.179805
0.0192786
0.0418964
0.053878
0.0627703
0.0702888
0.0770494
0.0833526
0.0893716
0.0952147
0.100952
0.106627
0.112269
0.117894
0.123515
0.129149
0.134824
0.140581
0.14648
0.1526
0.159027
0.165856
0.173195
0.181206
0.0188103
0.040947
0.0526788
0.0613816
0.0687286
0.0753264
0.0814762
0.0873564
0.0930826
0.0987328
0.10436
0.110002
0.115685
0.121429
0.127251
0.133179
0.139249
0.145512
0.152032
0.158886
0.166156
0.173938
0.182355
0.0183569
0.0400387
0.0515374
0.0600541
0.0672273
0.0736549
0.0796391
0.0853633
0.0909503
0.0964864
0.102034
0.107639
0.113336
0.119154
0.125118
0.131254
0.137597
0.144192
0.151096
0.158373
0.166099
0.174357
0.183241
0.0179414
0.0392085
0.0504929
0.0588314
0.0658316
0.0720848
0.0778951
0.083451
0.088882
0.0942827
0.0997243
0.105261
0.110938
0.116789
0.122848
0.129148
0.135723
0.142614
0.149872
0.157557
0.165735
0.17448
0.183869
0.0175822
0.0384874
0.049578
0.0577484
0.0645782
0.0706551
0.076286
0.0816647
0.0869272
0.0921758
0.0974901
0.102934
0.108559
0.11441
0.120526
0.126945
0.133709
0.140858
0.148438
0.156504
0.165117
0.174343
0.184244
0.0172924
0.0378987
0.0488183
0.056831
0.0634942
0.0693944
0.0748423
0.0800371
0.0851216
0.090205
0.0953749
0.100703
0.106251
0.112071
0.11821
0.124713
0.131624
0.138989
0.146855
0.15527
0.16429
0.173975
0.184373
0.0170807
0.0374577
0.0482308
0.0560968
0.0625977
0.0683215
0.0735839
0.0785901
0.0834889
0.0883964
0.0934074
0.0986018
0.104049
0.10981
0.115941
0.122493
0.129514
0.137055
0.145164
0.153893
0.163286
0.173397
0.184259
0.0169496
0.037172
0.0478249
0.0555554
0.0618986
0.0674469
0.0725221
0.0773356
0.0820423
0.0867647
0.0916042
0.096648
0.101973
0.10765
0.113742
0.120308
0.127404
0.135082
0.143394
0.15239
0.162119
0.172616
0.1839
0.0168978
0.0370427
0.0476025
0.0552092
0.0613998
0.0667738
0.0716605
0.0762778
0.0807868
0.0853156
0.0899717
0.0948491
0.100032
0.105599
0.111621
0.118166
0.125297
0.133072
0.141545
0.150766
0.16078
0.17162
0.183284
0.0169217
0.0370649
0.0475588
0.0550544
0.061098
0.0662996
0.070997
0.0754151
0.0797208
0.0840477
0.0885088
0.0932039
0.098224
0.103654
0.109575
0.116062
0.123185
0.13101
0.139596
0.148994
0.159246
0.170378
0.182378
0.0170159
0.0372295
0.0476847
0.0550826
0.0609861
0.0660179
0.0705259
0.074742
0.0788391
0.0829557
0.0872097
0.091706
0.0965412
0.101807
0.107592
0.113978
0.121047
0.12887
0.137512
0.14703
0.157465
0.168839
0.181126
0.0171737
0.0375252
0.0479686
0.055283
0.0610544
0.0659206
0.0702398
0.0742517
0.0781349
0.0820326
0.0860669
0.0903468
0.0949737
0.100045
0.105655
0.111895
0.118854
0.126614
0.135247
0.144818
0.15537
0.166926
0.179452
0.017388
0.0379403
0.0483991
0.0556455
0.0612941
0.0659999
0.0701321
0.0739382
0.0776025
0.0812726
0.0850741
0.0891192
0.0935129
0.0983567
0.103751
0.109793
0.116582
0.124207
0.132753
0.142293
0.152883
0.164547
0.177254
0.0176527
0.0384662
0.0489681
0.0561632
0.0616999
0.0662516
0.0701994
0.0737989
0.0772398
0.0806737
0.0842292
0.0880206
0.0921553
0.0967375
0.101871
0.10766
0.114209
0.121619
0.129987
0.139399
0.149924
0.161602
0.17441
0.0179649
0.0391007
0.0496749
0.0568364
0.0622728
0.0666775
0.0704442
0.0738366
0.07705
0.0802397
0.0835363
0.0870555
0.0909056
0.0951915
0.100019
0.105496
0.111732
0.118839
0.126926
0.136094
0.146432
0.158
0.170799
0.018328
0.0398527
0.0505307
0.0576771
0.0630244
0.0672887
0.0708771
0.0740621
0.0770443
0.0799823
0.0830081
0.0862379
0.089779
0.0937353
0.0982121
0.103318
0.109167
0.115878
0.123571
0.132365
0.14237
0.153674
0.166315
0.0187552
0.0407477
0.0515639
0.0587133
0.0639807
0.0681087
0.0715199
0.0744959
0.0772429
0.0799223
0.0826669
0.085592
0.0888027
0.0923998
0.0964853
0.101166
0.106556
0.112778
0.119962
0.12824
0.137748
0.148605
0.160892
0.0192721
0.0418345
0.0528277
0.0599953
0.0651869
0.0691772
0.0724075
0.07517
0.0776767
0.080091
0.0825456
0.0851537
0.0880166
0.0912302
0.0948905
0.0990989
0.103966
0.109613
0.116176
0.123799
0.132636
0.142837
0.154534
0.0199226
0.043194
0.0544089
0.0616036
0.0667125
0.070553
0.0735904
0.0761296
0.078388
0.0805303
0.0826878
0.08497
0.0874729
0.0902855
0.0934956
0.0971958
0.101488
0.106489
0.112331
0.119167
0.127164
0.1365
0.147343
0.0207747
0.0449563
0.0564436
0.0636579
0.0686559
0.072316
0.0751351
0.0774327
0.0794307
0.0812932
0.083148
0.0850991
0.0872355
0.0896377
0.0923834
0.0955534
0.0992375
0.10354
0.108586
0.114523
0.121527
0.129791
0.139521
0.0219344
0.0473321
0.0591367
0.0663261
0.0711467
0.0745666
0.0771229
0.0791493
0.0808695
0.0824433
0.0839915
0.0856103
0.0873798
0.0893704
0.0916485
0.0942813
0.0973434
0.100923
0.105128
0.110093
0.115986
0.123005
0.131379
0.023586
0.0506647
0.0627906
0.0698296
0.0743407
0.0774187
0.0796442
0.0813584
0.0827789
0.0840546
0.0852949
0.0865844
0.0879923
0.0895779
0.0913951
0.0934974
0.0959428
0.0987999
0.102155
0.10612
0.110842
0.116503
0.123334
0.0260938
0.0555437
0.0678355
0.074431
0.0783993
0.0809843
0.0827897
0.0841434
0.0852414
0.0862122
0.0871471
0.0881156
0.0891732
0.090367
0.0917386
0.0933276
0.0951762
0.0973335
0.099862
0.102845
0.106396
0.110667
0.115859
0.0303479
0.0630368
0.0748232
0.08037
0.0834407
0.0853461
0.0866385
0.0875889
0.0883491
0.0890152
0.0896538
0.0903153
0.0910399
0.0918612
0.0928084
0.0939087
0.0951898
0.0966831
0.0984287
0.100481
0.102915
0.105839
0.109404
0.0393878
0.0750514
0.084197
0.0876834
0.0894574
0.0905295
0.0912524
0.091784
0.09221
0.0925841
0.0929446
0.0933202
0.0937345
0.0942073
0.0947558
0.0953956
0.0961422
0.0970124
0.0980271
0.0992147
0.100616
0.10229
0.104325
0.0643177
0.093033
0.0952195
0.0958685
0.0962432
0.0965024
0.0966933
0.0968417
0.0969652
0.0970769
0.097187
0.0973041
0.0974352
0.0975868
0.0977645
0.0979733
0.0982182
0.0985043
0.0988375
0.0992259
0.0996809
0.100219
0.100866
0.0437952
0.0425226
0.0472245
0.0653432
0.0747101
0.0771895
0.0832833
0.0966241
0.0830121
0.0858728
0.0907203
0.0985749
0.087305
0.0907768
0.0958735
0.102566
0.0905748
0.0959781
0.103548
0.110805
0.0932438
0.0989111
0.107434
0.115143
0.144172
0.144534
0.138238
0.134297
0.157491
0.155556
0.150864
0.146538
0.166508
0.165517
0.163839
0.164573
0.171948
0.173189
0.174368
0.177106
0.175663
0.17867
0.181866
0.185684
0.178514
0.182586
0.18699
0.191588
0.180829
0.185415
0.190392
0.195448
0.182837
0.187595
0.192746
0.19797
0.18466
0.189433
0.194562
0.19978
0.186335
0.191089
0.196145
0.2013
0.187858
0.192635
0.19766
0.202782
0.18922
0.194092
0.199172
0.204347
0.190403
0.195442
0.200667
0.205992
0.191386
0.196643
0.20208
0.207628
0.192142
0.197642
0.203322
0.209129
0.192647
0.198389
0.204314
0.21038
0.192886
0.198851
0.205
0.2113
0.192846
0.199007
0.20535
0.211847
0.192512
0.198841
0.205347
0.212002
0.191857
0.198329
0.204971
0.211755
0.190831
0.197429
0.204189
0.211084
0.189359
0.196068
0.202936
0.209935
0.187332
0.194139
0.20111
0.208212
0.184623
0.191507
0.198568
0.205774
0.181087
0.188013
0.19514
0.202437
0.176584
0.1835
0.190648
0.197998
0.171007
0.177832
0.184928
0.192266
0.164316
0.170941
0.177877
0.185098
0.156568
0.162856
0.169492
0.176459
0.147949
0.153743
0.159915
0.166455
0.138763
0.143891
0.149411
0.155331
0.129459
0.133757
0.138441
0.143534
0.120578
0.123925
0.127621
0.131703
0.112671
0.115008
0.117624
0.120563
0.106191
0.107533
0.10905
0.110784
0.101451
0.10187
0.102343
0.10289
0.138373
0.171385
0.157591
0.139914
0.130993
0.122424
0.119877
0.125484
0.141763
0.225717
0.780493
0.511931
0.246283
0.23142
0.218758
0.197383
0.16776
0.13039
0.062909
0.132268
0.153344
0.147476
0.143683
0.141623
0.173202
0.157155
0.150733
0.167216
0.262489
0.818441
0.55385
0.260315
0.233002
0.215969
0.191877
0.158553
0.123191
0.0614525
0.116548
0.133947
0.128035
0.132323
0.17875
0.257424
0.256277
0.271186
0.316594
0.3787
0.782538
0.694764
0.265858
0.242307
0.223375
0.191514
0.148458
0.112483
0.0572891
0.113772
0.120542
0.11632
0.118049
0.265672
0.361181
0.403089
0.448417
0.452159
0.522575
0.845003
0.388835
0.282358
0.257503
0.236217
0.195562
0.134751
0.100722
0.0506847
0.116103
0.1143
0.113684
0.116334
0.220026
0.436545
0.496139
0.515411
0.555877
0.689286
0.956654
0.297111
0.286129
0.27698
0.250799
0.192506
0.127297
0.09214
0.0428461
0.116417
0.112906
0.114075
0.117978
0.124541
0.394291
0.51507
0.54609
0.585239
0.706522
0.502477
0.308161
0.2978
0.297007
0.2654
0.185996
0.13228
0.0859939
0.0358282
0.119182
0.116681
0.118645
0.12328
0.129721
0.202127
0.449222
0.500395
0.513974
0.55735
0.30568
0.302011
0.30947
0.313564
0.259467
0.179864
0.135946
0.0847298
0.0329776
0.138161
0.123928
0.125038
0.128535
0.132729
0.140037
0.333893
0.411859
0.42713
0.452575
0.296146
0.301297
0.317881
0.316128
0.231593
0.172134
0.131963
0.0857572
0.0355077
0.171906
0.133886
0.131958
0.134583
0.138255
0.143854
0.164341
0.33283
0.374612
0.291653
0.287205
0.295959
0.318078
0.297604
0.204812
0.169445
0.124784
0.0832085
0.0416154
0.186978
0.183773
0.141259
0.141267
0.144831
0.150196
0.161008
0.222052
0.27885
0.268293
0.274158
0.284325
0.309207
0.290156
0.21586
0.175145
0.107689
0.0793613
0.0444853
0.194395
0.215821
0.167238
0.150301
0.152788
0.159056
0.169788
0.193806
0.239215
0.25131
0.258361
0.271873
0.298359
0.29268
0.256703
0.159573
0.0975303
0.0772713
0.0461121
0.199591
0.216267
0.227823
0.168323
0.162289
0.168689
0.180372
0.19909
0.22133
0.235256
0.242334
0.261145
0.290092
0.296376
0.289987
0.18517
0.102498
0.0761073
0.0473653
0.203467
0.215044
0.227824
0.235046
0.183289
0.178929
0.187001
0.199273
0.214301
0.225503
0.23453
0.257806
0.298145
0.317803
0.331639
0.233393
0.105473
0.0744922
0.0481903
0.206132
0.215608
0.224205
0.231443
0.229747
0.204804
0.189898
0.20287
0.216273
0.225565
0.236064
0.280432
0.369495
0.361328
0.43214
0.177791
0.0979136
0.0752443
0.049596
0.208028
0.217009
0.224056
0.228195
0.228052
0.222599
0.211504
0.217488
0.23753
0.28308
0.37056
0.418749
0.398166
0.424878
0.521748
0.146663
0.0958131
0.076877
0.0521051
0.20958
0.218668
0.225709
0.229754
0.23005
0.228357
0.232821
0.25857
0.298095
0.347347
0.398865
0.409697
0.407629
0.479989
0.582091
0.181929
0.0962911
0.0776557
0.0536137
0.211123
0.220586
0.228203
0.233355
0.235893
0.238086
0.247755
0.275481
0.316088
0.360581
0.390111
0.393304
0.414406
0.512425
0.605324
0.324623
0.0988491
0.0783964
0.0543845
0.212869
0.222919
0.23142
0.237961
0.242744
0.247918
0.25927
0.28341
0.318286
0.353482
0.371679
0.378063
0.421878
0.530532
0.619558
0.432167
0.113258
0.0800249
0.0542497
0.214846
0.22568
0.235288
0.243336
0.250031
0.256988
0.268087
0.287611
0.314485
0.339692
0.352601
0.367472
0.426069
0.534322
0.623951
0.447227
0.114045
0.0828266
0.0545968
0.216926
0.228682
0.239515
0.249095
0.25747
0.265582
0.275752
0.290621
0.309518
0.326483
0.337332
0.358899
0.422039
0.525294
0.608708
0.379017
0.111836
0.0853676
0.0557598
0.218921
0.231629
0.243675
0.254685
0.264512
0.2735
0.282783
0.293772
0.306145
0.317001
0.326761
0.351015
0.411431
0.504345
0.575984
0.236146
0.111506
0.0881408
0.0570378
0.220653
0.234243
0.247365
0.259591
0.270592
0.280269
0.288937
0.297163
0.304914
0.311617
0.320405
0.344306
0.397901
0.476174
0.538806
0.18536
0.110281
0.0907792
0.0580414
0.221998
0.236332
0.250319
0.263475
0.275339
0.285518
0.293825
0.300331
0.30523
0.309423
0.317308
0.339348
0.385141
0.449959
0.508046
0.251157
0.111449
0.0924405
0.0583004
0.222892
0.237806
0.252426
0.26622
0.278638
0.289127
0.29724
0.302814
0.306224
0.309162
0.316384
0.336344
0.375928
0.432584
0.489449
0.38441
0.124527
0.0935759
0.0576127
0.223318
0.238663
0.25371
0.267887
0.2806
0.291226
0.299224
0.304375
0.307193
0.309717
0.316602
0.334977
0.370772
0.423935
0.482612
0.449964
0.205449
0.0952909
0.0556927
0.223283
0.238947
0.254271
0.268652
0.281475
0.292112
0.300028
0.30504
0.307767
0.310341
0.317134
0.334459
0.368103
0.419493
0.477369
0.471675
0.292532
0.0978572
0.0534963
0.222788
0.238713
0.254236
0.268725
0.281565
0.292154
0.300013
0.305035
0.307904
0.310709
0.317479
0.333966
0.36592
0.415247
0.470035
0.475474
0.337281
0.105321
0.0521479
0.221805
0.237987
0.253701
0.268292
0.281146
0.291702
0.299555
0.304675
0.307779
0.310836
0.317506
0.333038
0.362956
0.409107
0.459585
0.468271
0.346666
0.111287
0.0523876
0.220257
0.236737
0.252697
0.267456
0.280404
0.291016
0.298957
0.304262
0.307649
0.310926
0.317358
0.33163
0.358709
0.399932
0.443826
0.449176
0.321396
0.11714
0.0540788
0.218007
0.234848
0.251153
0.266208
0.279394
0.290215
0.298388
0.303994
0.307727
0.31121
0.317284
0.329952
0.353267
0.38764
0.422024
0.420121
0.257975
0.116704
0.0620961
0.214859
0.232125
0.248891
0.264402
0.278018
0.289249
0.297841
0.303903
0.308083
0.311805
0.317465
0.328292
0.347204
0.373531
0.397051
0.390378
0.213039
0.115496
0.0649458
0.210574
0.228298
0.245626
0.261758
0.276014
0.287884
0.297116
0.303819
0.308582
0.312622
0.317897
0.326857
0.34131
0.359809
0.374075
0.366473
0.210669
0.115737
0.0610926
0.204896
0.223047
0.240991
0.257879
0.272971
0.285712
0.295816
0.30336
0.308853
0.313317
0.31831
0.325594
0.336105
0.348065
0.355469
0.347894
0.245867
0.118958
0.0561794
0.197614
0.216059
0.23458
0.252286
0.268361
0.282172
0.293372
0.301955
0.308324
0.313323
0.318165
0.324084
0.331464
0.338562
0.341306
0.333976
0.28702
0.140686
0.0521251
0.188631
0.207075
0.226009
0.244486
0.261598
0.27661
0.289076
0.298879
0.306268
0.311929
0.316773
0.321633
0.3266
0.330148
0.329591
0.322495
0.296839
0.169853
0.0508041
0.17796
0.195953
0.215001
0.234067
0.25214
0.268367
0.282174
0.29333
0.301914
0.308382
0.313408
0.317517
0.320577
0.3212
0.317743
0.309555
0.290769
0.18676
0.0521875
0.165841
0.182775
0.201498
0.220823
0.239639
0.256954
0.272058
0.284573
0.294451
0.301902
0.307346
0.311083
0.312803
0.311312
0.306008
0.29614
0.277915
0.211173
0.0579612
0.152703
0.168045
0.185786
0.204927
0.224137
0.242268
0.258469
0.272216
0.283304
0.29179
0.297861
0.301642
0.302824
0.300521
0.293835
0.282297
0.264096
0.209063
0.0627074
0.139192
0.152368
0.168526
0.187088
0.206353
0.224922
0.241859
0.256531
0.268585
0.277916
0.28457
0.288575
0.289705
0.287192
0.27939
0.265797
0.245019
0.17858
0.06072
0.12609
0.136508
0.150552
0.168527
0.187943
0.206653
0.223873
0.239004
0.25159
0.261374
0.268263
0.272213
0.27303
0.269987
0.261223
0.24574
0.226258
0.176003
0.0678158
0.114141
0.121097
0.1322
0.14984
0.171438
0.190488
0.207631
0.222735
0.235359
0.245115
0.251763
0.25515
0.25505
0.250741
0.240073
0.223741
0.242811
0.207448
0.0721455
0.103973
0.106468
0.11165
0.124902
0.159601
0.180232
0.197219
0.212018
0.22439
0.233897
0.240179
0.242928
0.241664
0.234984
0.217774
0.165473
0.185018
0.170242
0.0954954
)
;

boundaryField
{
    leftWall
    {
        type            kqRWallFunction;
        value           nonuniform List<scalar> 
50
(
0.0034834
0.00538356
0.0061636
0.00633517
0.00614723
0.00594225
0.00575196
0.00550937
0.00517033
0.00532915
0.0147943
0.0186961
0.0196139
0.020095
0.0203747
0.0206837
0.0209026
0.0210357
0.0210678
0.0209869
0.0207959
0.0205109
0.0201528
0.0197353
0.0192786
0.0188103
0.0183569
0.0179414
0.0175822
0.0172924
0.0170807
0.0169496
0.0168978
0.0169217
0.0170159
0.0171737
0.017388
0.0176527
0.0179649
0.018328
0.0187552
0.0192721
0.0199226
0.0207747
0.0219344
0.023586
0.0260938
0.0303479
0.0393878
0.0643177
)
;
    }
    rightWall
    {
        type            kqRWallFunction;
        value           nonuniform List<scalar> 
50
(
0.0216673
0.0360165
0.0462956
0.0530768
0.0577069
0.0604283
0.0621192
0.0629593
0.062909
0.0614525
0.0572891
0.0506847
0.0428461
0.0358282
0.0329776
0.0355077
0.0416154
0.0444853
0.0461121
0.0473653
0.0481903
0.049596
0.0521051
0.0536137
0.0543845
0.0542497
0.0545968
0.0557598
0.0570378
0.0580414
0.0583004
0.0576127
0.0556927
0.0534963
0.0521479
0.0523876
0.0540788
0.0620961
0.0649458
0.0610926
0.0561794
0.0521251
0.0508041
0.0521875
0.0579612
0.0627074
0.06072
0.0678158
0.0721455
0.0954954
)
;
    }
    lowerWall
    {
        type            kqRWallFunction;
        value           nonuniform List<scalar> 
62
(
0.0034834
0.00530039
0.00716091
0.0086149
0.00963851
0.0103901
0.0110254
0.0116305
0.0122448
0.0128607
0.0134586
0.0140118
0.0144988
0.0148789
0.0150778
0.0149958
0.0145732
0.0137551
0.0125869
0.0112933
0.00999764
0.00892182
0.00730202
0.00730202
0.0126523
0.015826
0.018843
0.0220342
0.0260965
0.0324669
0.0429116
0.0437952
0.0425226
0.0472245
0.0653432
0.0509728
0.0751186
0.0783544
0.0804226
0.0814012
0.0798977
0.0786743
0.0816492
0.0509728
0.0460459
0.0576903
0.0654849
0.0713825
0.0750924
0.0766501
0.080058
0.0847804
0.0900166
0.0952813
0.100219
0.104455
0.10719
0.105872
0.0965773
0.0790034
0.0534355
0.0216673
)
;
    }
    atmosphere
    {
        type            inletOutlet;
        inletValue      uniform 0.1;
        value           nonuniform List<scalar> 
46
(
0.0643177
0.1
0.1
0.1
0.1
0.1
0.1
0.1
0.1
0.1
0.1
0.1
0.1
0.1
0.1
0.1
0.1
0.1
0.1
0.1
0.1
0.1
0.1
0.1
0.1
0.1
0.1
0.1
0.1
0.1
0.1
0.159601
0.180232
0.197219
0.212018
0.22439
0.233897
0.240179
0.242928
0.241664
0.234984
0.217774
0.1
0.1
0.1
0.0954954
)
;
    }
    defaultFaces
    {
        type            empty;
    }
}


// ************************************************************************* //
