/*--------------------------------*- C++ -*----------------------------------*\
| =========                 |                                                 |
| \\      /  F ield         | OpenFOAM: The Open Source CFD Toolbox           |
|  \\    /   O peration     | Version:  v2012                                 |
|   \\  /    A nd           | Website:  www.openfoam.com                      |
|    \\/     M anipulation  |                                                 |
\*---------------------------------------------------------------------------*/
FoamFile
{
    version     2.0;
    format      ascii;
    class       volScalarField;
    location    "0.7";
    object      nut;
}
// * * * * * * * * * * * * * * * * * * * * * * * * * * * * * * * * * * * * * //

dimensions      [0 2 -1 0 0 0 0];


internalField   nonuniform List<scalar> 
2268
(
5.3612e-05
4.85907e-05
5.63821e-05
6.17272e-05
6.52874e-05
6.78034e-05
6.98851e-05
7.18571e-05
7.3814e-05
7.57089e-05
7.7494e-05
7.91038e-05
8.04827e-05
8.15417e-05
8.20761e-05
8.18139e-05
8.05963e-05
7.82652e-05
7.48761e-05
7.10015e-05
6.68608e-05
6.33777e-05
5.68476e-05
0.000103895
0.000245457
0.000357618
0.000428455
0.000479024
0.000519964
0.000555249
0.000587462
0.000616658
0.000644009
0.000669734
0.000693041
0.000712718
0.000727445
0.000735909
0.000733645
0.000715105
0.000679787
0.00062948
0.000571812
0.000515116
0.000399369
0.000158431
0.000111286
0.000397829
0.000585298
0.000718408
0.000826307
0.000918693
0.00100046
0.00107353
0.00114004
0.00120162
0.00125841
0.00130909
0.00135166
0.00138319
0.00139947
0.00139439
0.00136027
0.00129519
0.00120129
0.00108461
0.000940473
0.000668302
0.000177256
0.000112977
0.000481577
0.000721591
0.000910573
0.00107528
0.0012215
0.001351
0.00146635
0.00157065
0.00166602
0.00175271
0.0018291
0.00189259
0.00193924
0.00196319
0.00195755
0.00191454
0.0018299
0.00170526
0.00154047
0.00130711
0.000894915
0.000193601
0.000111285
0.00050704
0.000786309
0.00102876
0.00125084
0.00145068
0.00162765
0.00178465
0.00192561
0.00205329
0.00216811
0.00226841
0.00235114
0.00241179
0.00244393
0.0024403
0.00239327
0.00229761
0.00215133
0.0019442
0.00162847
0.00108394
0.000209912
0.000109035
0.000484682
0.000795732
0.00109112
0.00137066
0.00162307
0.00184564
0.00204218
0.00221773
0.00237574
0.00251687
0.00263946
0.00274023
0.00281434
0.00285529
0.00285578
0.00280811
0.00270574
0.00254265
0.00229872
0.00190873
0.00123657
0.000229661
0.000107126
0.000439994
0.000770004
0.00111394
0.00144948
0.00175113
0.00201546
0.0022481
0.00245544
0.00264148
0.00280701
0.00295051
0.00306843
0.00315575
0.00320607
0.00321235
0.00316655
0.0030607
0.0028852
0.00261135
0.00215575
0.00135376
0.000257401
0.000104799
0.000393161
0.000732277
0.00111657
0.00150032
0.00184431
0.00214441
0.00240863
0.00264443
0.00285596
0.00304398
0.00320719
0.00334161
0.00344201
0.00350215
0.00351564
0.0034738
0.0033675
0.003185
0.00289251
0.00239228
0.00147366
0.000294608
0.000148668
0.000142892
0.000161235
0.000172572
0.000180602
0.000184408
0.000184719
0.000188038
0.000193219
0.000199044
0.000204967
0.000210435
0.000215253
0.000218579
0.000217358
0.000207057
0.000186705
0.000153107
0.000137333
0.000431681
0.000356898
0.000429156
0.00060222
0.000788771
0.000895009
0.000969132
0.00101742
0.00109382
0.00118978
0.00128897
0.00139326
0.00150274
0.00160849
0.00166112
0.00158562
0.00135809
0.000971025
0.000292762
0.000441498
0.00040223
0.000481566
0.000784112
0.00112312
0.00127659
0.00143801
0.00154892
0.00177572
0.00202176
0.00224766
0.00246397
0.00266236
0.00282309
0.00286372
0.00266457
0.00219619
0.00142796
0.000334053
0.000442217
0.000436319
0.000552078
0.000897161
0.000979964
0.001146
0.00140645
0.00167135
0.00188756
0.00241175
0.00281316
0.00314656
0.00342269
0.00361243
0.00362197
0.00331941
0.00268227
0.0016807
0.000358599
0.000441934
0.000486318
0.000690395
0.000898394
0.000949332
0.00105885
0.00111561
0.00138631
0.00150291
0.00214289
0.00302352
0.00354038
0.00388621
0.00411008
0.00409636
0.00372526
0.0029746
0.00183712
0.000374013
0.000433763
0.000554841
0.000741908
0.000892902
0.00093697
0.000939537
0.000929308
0.000918328
0.00108959
0.00158052
0.00254448
0.00371141
0.00417434
0.00441473
0.0043859
0.0039782
0.00317376
0.00194905
0.00038227
0.000427913
0.000593462
0.000891302
0.00104642
0.00107155
0.00102299
0.00098928
0.000917324
0.000896854
0.00113922
0.00226732
0.00361017
0.00436418
0.00460085
0.00454639
0.00412462
0.00330603
0.00203512
0.00038672
0.000440269
0.000770414
0.0011923
0.0013106
0.00126868
0.00111702
0.00103328
0.00095265
0.000893694
0.00101204
0.00218222
0.00404017
0.00456652
0.00471007
0.00461316
0.00419194
0.00338115
0.00209457
0.000388036
0.00010141
0.000334815
0.000681796
0.00111691
0.0015598
0.0019555
0.0022991
0.00260202
0.00287361
0.00311907
0.00333962
0.00353255
0.00369233
0.00381319
0.00388898
0.00391377
0.00387906
0.00377498
0.00358906
0.0032893
0.00279714
0.00199017
0.00094058
0.000101804
0.000341129
0.000697925
0.00115747
0.00161564
0.00202772
0.00239318
0.00272299
0.00302679
0.00330768
0.0035604
0.00377927
0.0039612
0.00410301
0.00420066
0.00424666
0.00423082
0.00414508
0.00398521
0.00373934
0.00338077
0.00289388
0.00234287
0.00016961
0.000778055
0.00117655
0.00143057
0.00170821
0.0020712
0.0024195
0.00274032
0.00304325
0.00334443
0.00361941
0.00385998
0.00406614
0.00423294
0.00435203
0.00441184
0.00440924
0.00434372
0.00421657
0.00402787
0.00377139
0.00346313
0.00316395
0.000191987
0.00112806
0.00179446
0.00225667
0.00266095
0.00307469
0.00347214
0.00382674
0.00406992
0.00398315
0.00376932
0.0039061
0.004087
0.00424404
0.00435892
0.00442018
0.00442423
0.00438399
0.00429219
0.0041469
0.00394496
0.00371531
0.00352215
0.000196652
0.00134378
0.00223515
0.00286747
0.00338148
0.00384688
0.00427386
0.00464937
0.00493358
0.00507643
0.0051588
0.00530676
0.00546009
0.00552946
0.00539614
0.00496713
0.0045655
0.00442344
0.00431255
0.00416018
0.00395415
0.00370335
0.0035697
0.000199824
0.00148443
0.00255092
0.0033303
0.00395168
0.00448253
0.00494761
0.00534844
0.00567034
0.00590392
0.0060884
0.00627468
0.00644623
0.0065515
0.00654333
0.00642964
0.00631097
0.00624424
0.00615161
0.00595373
0.00557706
0.00493235
0.00379328
0.000201373
0.00157466
0.00277455
0.00368622
0.00441154
0.0050148
0.00552816
0.00596424
0.00632439
0.00661221
0.00684942
0.00706101
0.00724533
0.00738118
0.00745319
0.00747497
0.00748408
0.00748464
0.00744105
0.0072865
0.00697202
0.00648519
0.00591564
0.000203022
0.00162879
0.00294068
0.00396517
0.00478467
0.00545955
0.00602559
0.00650233
0.00690007
0.00722795
0.00750084
0.00773416
0.00793253
0.00809119
0.00820774
0.0082915
0.00835741
0.0084021
0.00840036
0.00831809
0.00811535
0.00776747
0.00727075
0.000204171
0.00167323
0.00307334
0.00418924
0.0050892
0.00582946
0.00644693
0.00696495
0.00739862
0.00775998
0.00806162
0.00831544
0.0085286
0.00870385
0.00884419
0.00895658
0.0090484
0.00911785
0.00914992
0.00912038
0.00899646
0.00874267
0.00832613
0.000204895
0.00171268
0.00318249
0.0043711
0.00533765
0.0061348
0.00679933
0.00735632
0.00782339
0.00821423
0.00854095
0.00881422
0.00904217
0.00923055
0.0093846
0.00951041
0.00961314
0.00969277
0.00974107
0.00974173
0.00967034
0.00949256
0.00916615
0.000205154
0.00174585
0.00327052
0.0045168
0.00553778
0.00638329
0.00708937
0.0076817
0.00817915
0.00859636
0.00894554
0.00923704
0.00947934
0.00967932
0.00984307
0.00997647
0.0100843
0.0101682
0.0102243
0.0102425
0.0102048
0.0100848
0.00984963
0.000204853
0.00177047
0.00333754
0.00462924
0.00569456
0.00658077
0.00732292
0.00794666
0.00847137
0.0089122
0.00928158
0.00958989
0.00984582
0.0100567
0.010229
0.0103685
0.0104803
0.0105671
0.0106283
0.010658
0.0106441
0.010568
0.0104065
0.000203996
0.00178528
0.00338369
0.00471082
0.00581179
0.00673211
0.00750534
0.00815674
0.00870569
0.00916759
0.00955506
0.00987863
0.0101472
0.0103683
0.0105488
0.0106945
0.0108107
0.0109012
0.010967
0.0110056
0.0110092
0.0109651
0.0108572
0.00020265
0.00179014
0.00340996
0.0047639
0.00589333
0.00684171
0.00764164
0.00831731
0.00888773
0.00936831
0.0097718
0.0101089
0.0103887
0.0106192
0.0108072
0.010959
0.0110802
0.011175
0.0112458
0.011292
0.0113088
0.0112874
0.0112161
0.000200921
0.00178605
0.00341838
0.00479113
0.00594265
0.00691413
0.00773656
0.00843335
0.00902279
0.00951983
0.00993725
0.0102859
0.0105753
0.0108135
0.0110079
0.0111651
0.0112909
0.0113902
0.011466
0.0115188
0.0115459
0.0115406
0.0114937
0.000198899
0.00177615
0.00341163
0.00479548
0.00596315
0.00695328
0.00779482
0.00850978
0.0091157
0.0096271
0.0100564
0.0104145
0.0107113
0.0109552
0.011154
0.0113149
0.0114441
0.0115468
0.0116269
0.0116856
0.0117211
0.011728
0.0116982
0.000196647
0.00176235
0.00339213
0.00477999
0.00595827
0.00696289
0.00782043
0.00855108
0.00917117
0.00969461
0.0101336
0.0104989
0.0108006
0.0110476
0.0112483
0.0114104
0.0115408
0.0116453
0.0117283
0.0117918
0.0118346
0.011852
0.0118362
0.000194294
0.00174497
0.0033624
0.00474776
0.0059315
0.00694666
0.00781718
0.00856112
0.00919329
0.00972664
0.0101729
0.0105429
0.0108468
0.011094
0.0112935
0.0114538
0.0115826
0.0116866
0.0117708
0.0118379
0.0118875
0.0119153
0.0119137
0.000191971
0.00172458
0.00332452
0.00470184
0.00588639
0.00690835
0.00778884
0.00854364
0.00918577
0.00972695
0.0101782
0.0105503
0.0108534
0.0110977
0.0112928
0.0114481
0.0115722
0.0116729
0.0117562
0.0118258
0.0118819
0.0119211
0.0119358
0.000189803
0.00170207
0.00328027
0.00464522
0.00582656
0.0068518
0.0077393
0.00850243
0.0091523
0.00969919
0.0101533
0.0105249
0.0108245
0.0110627
0.01125
0.0113969
0.0115132
0.0116078
0.0116881
0.0117589
0.0118214
0.0118731
0.0119069
0.000187892
0.00167844
0.00323163
0.0045809
0.00575565
0.00678096
0.00767258
0.00844148
0.00909677
0.00964721
0.010102
0.0104708
0.0107642
0.0109934
0.0111699
0.0113052
0.0114107
0.0114966
0.0115718
0.0116423
0.0117108
0.0117758
0.011831
0.000186321
0.00165472
0.00318079
0.0045119
0.00567733
0.00669989
0.00759287
0.00836498
0.00902335
0.00957518
0.0100285
0.0103924
0.0106775
0.0108953
0.0110582
0.0111793
0.0112711
0.0113458
0.0114138
0.0114825
0.0115561
0.0116343
0.0117118
0.000185157
0.00163186
0.0031299
0.0044413
0.00559529
0.00661265
0.00750443
0.00827726
0.00893644
0.00948758
0.0099375
0.0102947
0.0105695
0.010774
0.0109215
0.0110262
0.0111023
0.0111635
0.0112219
0.011287
0.011364
0.0114542
0.0115534
0.00018441
0.00161077
0.00308112
0.00437209
0.00551313
0.00652323
0.00741149
0.00818272
0.00884052
0.00938903
0.00983392
0.0101829
0.0104461
0.0106359
0.0107665
0.0108534
0.0109123
0.0109584
0.0110052
0.011064
0.0111422
0.0112419
0.0113603
0.000184083
0.00159228
0.00303633
0.00430702
0.0054342
0.0064354
0.0073181
0.00808556
0.00873998
0.00928417
0.00972264
0.0100624
0.0103131
0.0104874
0.0106002
0.0106683
0.0107088
0.0107385
0.0107723
0.0108226
0.0108983
0.0110042
0.0111377
0.00018416
0.00157695
0.00299705
0.00424844
0.0053615
0.00635259
0.00722798
0.00798975
0.00863896
0.00917731
0.00960832
0.00993809
0.0101759
0.0103345
0.0104293
0.0104781
0.0104995
0.0105116
0.0105307
0.0105705
0.0106409
0.0107476
0.0108912
0.000184612
0.00156516
0.00296441
0.00419823
0.00529752
0.00627779
0.00714444
0.00789879
0.00854114
0.00907237
0.00949511
0.00981468
0.0100398
0.0101829
0.0102599
0.0102894
0.0102911
0.0102845
0.0102872
0.0103141
0.010376
0.0104795
0.0106265
0.000185404
0.00155709
0.00293918
0.00415783
0.0052443
0.00621353
0.00707035
0.00781576
0.00844972
0.00897267
0.00938658
0.009696
0.00990894
0.0100374
0.0100973
0.0101077
0.0100894
0.010063
0.0100476
0.0100589
0.0101089
0.0102049
0.0103497
0.000186495
0.00155283
0.00292193
0.00412835
0.00520357
0.00616197
0.00700823
0.00774334
0.00836745
0.00888097
0.00928556
0.0095851
0.00978677
0.00990184
0.00994581
0.00993788
0.00989944
0.00985227
0.00981658
0.00980944
0.00984375
0.0099278
0.0100651
0.00018785
0.00155245
0.00291315
0.00411086
0.00517691
0.00612519
0.00696036
0.00768395
0.00829671
0.00879957
0.00919428
0.00948426
0.00967581
0.00977913
0.00980886
0.00978375
0.00972545
0.00965654
0.00959843
0.00956955
0.00958406
0.00965131
0.00977578
0.000189451
0.0015562
0.00291355
0.00410663
0.00516611
0.00610532
0.00692912
0.0076399
0.00823965
0.00873038
0.0091144
0.00939503
0.0095777
0.00967127
0.00968897
0.00964852
0.00957117
0.00947994
0.00939731
0.0093432
0.00933333
0.00937847
0.00948428
0.000191311
0.00156455
0.00292432
0.00411751
0.00517354
0.006105
0.00691715
0.0076137
0.00819841
0.00867506
0.00904715
0.0093183
0.00949324
0.00957928
0.00958776
0.00953459
0.00943992
0.00932656
0.00921778
0.009135
0.00909582
0.00911291
0.00919354
0.000193493
0.00157843
0.00294744
0.00414638
0.00520257
0.00612772
0.00692773
0.00760813
0.00817519
0.00863515
0.00899341
0.00925438
0.00942239
0.00950319
0.00950576
0.0094435
0.0093345
0.00920052
0.00906502
0.00895074
0.00887735
0.00885994
0.00890798
0.000196114
0.00159937
0.00298613
0.00419765
0.00525814
0.00617826
0.00696497
0.00762646
0.00817233
0.00861208
0.00895368
0.00920296
0.00936425
0.00944188
0.00944221
0.00937549
0.00925677
0.00910564
0.00894477
0.00879762
0.00868591
0.0086275
0.00863479
0.000199382
0.00162959
0.00304527
0.00427804
0.00534744
0.00626312
0.00703411
0.00767247
0.00819224
0.00860704
0.00892807
0.00916314
0.00931703
0.00939296
0.00939474
0.00932902
0.00920694
0.00904467
0.00886273
0.00868415
0.00853203
0.00842703
0.00838523
0.000203615
0.00167255
0.00313254
0.0043977
0.00548077
0.00639101
0.00714151
0.00775022
0.00823711
0.00862079
0.00891614
0.00913333
0.00927801
0.00935273
0.00935907
0.00930007
0.0091824
0.00901769
0.00882274
0.00861845
0.0084279
0.00827378
0.00817588
0.000209254
0.00173378
0.00325987
0.00457207
0.00567284
0.00657325
0.00729442
0.00786357
0.00830841
0.00865322
0.00891669
0.00911129
0.00924376
0.0093164
0.00932915
0.00928192
0.00917695
0.00902068
0.00882474
0.00860593
0.00838507
0.00818505
0.00802836
0.000217038
0.00182194
0.00344719
0.00482559
0.0059447
0.00682389
0.00750026
0.00801517
0.00840605
0.00870288
0.00892754
0.0090942
0.00921044
0.00927863
0.00929778
0.00926561
0.00918068
0.00904441
0.00886259
0.00864612
0.008411
0.00817734
0.00796766
0.000228329
0.00195287
0.00373163
0.00519903
0.00632614
0.00715888
0.00776458
0.00820481
0.00852735
0.0087665
0.00894552
0.00907893
0.00917443
0.00923448
0.00925785
0.00924125
0.00918096
0.00907461
0.0089226
0.00872937
0.00850403
0.00826053
0.00801724
0.000246149
0.00216502
0.00419428
0.0057646
0.00685748
0.00759219
0.00808715
0.00842684
0.00866589
0.00883871
0.00896671
0.00906265
0.00913323
0.00918071
0.00920412
0.00920029
0.00916501
0.00909409
0.00898447
0.00883527
0.00864856
0.00843014
0.00818997
0.000279184
0.00259766
0.00504723
0.00665288
0.00758325
0.00812474
0.00845494
0.00866735
0.00881095
0.00891248
0.00898715
0.00904363
0.0090864
0.00911706
0.00913507
0.0091383
0.00912357
0.00908717
0.00902538
0.00893496
0.00881357
0.00866025
0.00847574
0.000344531
0.00407216
0.00694559
0.00806396
0.00851018
0.00871947
0.00883353
0.00890293
0.00894862
0.0089806
0.00900417
0.00902227
0.00903641
0.00904714
0.00905432
0.0090572
0.00905465
0.00904516
0.00902704
0.00899842
0.00895733
0.00890167
0.00882901
0.000295993
0.000295623
0.00032094
0.000392707
0.00199856
0.00195245
0.00195997
0.00197703
0.00301117
0.00296907
0.00296482
0.00298626
0.00343797
0.00341134
0.00340638
0.00341982
0.00353898
0.00354189
0.00356219
0.00358005
0.0036124
0.00358398
0.00358651
0.00360046
0.00543846
0.00508745
0.00463276
0.00420193
0.00668841
0.00625713
0.00575298
0.0051932
0.00781512
0.00743177
0.00698814
0.00650514
0.00876674
0.00846566
0.00810857
0.00769863
0.0095567
0.00933144
0.0090593
0.00873405
0.0101984
0.010033
0.00982958
0.00957888
0.0107102
0.0105888
0.0104369
0.0102449
0.0111102
0.0110192
0.0109034
0.0107544
0.0114144
0.0113432
0.0112512
0.0111317
0.0116363
0.0115781
0.0115016
0.0114015
0.0117875
0.0117391
0.0116739
0.0115877
0.011878
0.0118391
0.0117848
0.011711
0.0119154
0.0118881
0.0118465
0.0117871
0.0119054
0.0118923
0.0118665
0.0118247
0.0118514
0.0118551
0.011848
0.0118271
0.0117559
0.0117779
0.0117915
0.0117936
0.0116212
0.0116617
0.0116963
0.0117223
0.0114501
0.0115078
0.0115626
0.0116114
0.0112461
0.0113189
0.0113914
0.0114608
0.011014
0.0110987
0.0111857
0.0112723
0.0107587
0.010852
0.0109498
0.0110496
0.0104855
0.0105838
0.0106886
0.0107976
0.0101992
0.0102987
0.0104068
0.0105211
0.00990362
0.0100009
0.0101086
0.0102247
0.00960123
0.00969334
0.00979734
0.00991161
0.00929448
0.00937827
0.00947535
0.00958428
0.00898689
0.00905863
0.00914512
0.00924511
0.00868469
0.00873986
0.00881124
0.0088979
0.00839838
0.00843164
0.00848254
0.00855056
0.00814447
0.00815003
0.00817418
0.00821691
0.00794641
0.00791907
0.00791017
0.00792045
0.00783435
0.0077712
0.00772454
0.007696
0.00784199
0.00774577
0.0076613
0.00759105
0.00799856
0.00788253
0.00777042
0.00766473
0.00831446
0.00820809
0.008097
0.007982
0.00876005
0.00871095
0.00865591
0.00859373
0.00105705
0.00157025
0.00176949
0.00171151
0.0015768
0.00123689
0.0010366
0.000961147
0.000909665
0.000991382
0.002869
0.00442299
0.00462467
0.00474496
0.00460683
0.00419899
0.0034057
0.00213111
0.000386125
0.00202921
0.00261794
0.00260644
0.00246603
0.00217996
0.00162265
0.00120537
0.00109296
0.00105198
0.00122305
0.00339026
0.00473764
0.00466977
0.00471096
0.00453916
0.00413633
0.00331741
0.00209381
0.000378177
0.00308476
0.00323092
0.00302932
0.0028901
0.0017821
0.00185493
0.00172515
0.00152747
0.00161993
0.00183113
0.00379361
0.00535244
0.00481024
0.00477548
0.00454638
0.00405952
0.0030719
0.00191683
0.000361638
0.00348031
0.00342704
0.00320637
0.00308431
0.00198265
0.00243386
0.00252317
0.00259349
0.00252175
0.00279584
0.00455053
0.00429464
0.00503854
0.00488099
0.004592
0.00389265
0.00259789
0.00166021
0.000338202
0.00358485
0.00347271
0.00333543
0.00326406
0.00190946
0.00286896
0.00318169
0.0032203
0.00335704
0.00396519
0.00538633
0.00510306
0.00518835
0.00498735
0.00459556
0.00351241
0.00217206
0.00141704
0.0003102
0.00358477
0.00351453
0.00347325
0.0034355
0.00289276
0.00273574
0.00339122
0.00360465
0.00382033
0.00441742
0.00399611
0.00522364
0.00525092
0.00502968
0.00439023
0.00297996
0.00190752
0.00115979
0.000288983
0.00365221
0.00361847
0.00363587
0.00365055
0.00359314
0.00212101
0.00313067
0.00353796
0.00375527
0.0041365
0.00530694
0.00536921
0.00526148
0.00496647
0.00384966
0.00245813
0.00173242
0.00104585
0.000287874
0.0042706
0.0038042
0.00383039
0.0038754
0.0039074
0.0036464
0.00266779
0.00319011
0.00352113
0.00403781
0.00530104
0.00533228
0.00518676
0.00463268
0.00310612
0.00212409
0.00162893
0.00103565
0.000304182
0.00580204
0.00407351
0.00404487
0.00409557
0.00414731
0.00422156
0.00331029
0.00294988
0.00354167
0.00519423
0.0052835
0.00522087
0.00500827
0.00412167
0.00257708
0.00201407
0.00156268
0.00101563
0.000327878
0.00703748
0.00546502
0.00428686
0.00430099
0.00436408
0.00444876
0.00454093
0.00355193
0.00456321
0.00516814
0.0051963
0.0050569
0.0047801
0.00400952
0.0026256
0.00202519
0.00141781
0.00101221
0.00033841
0.00814109
0.00708429
0.00481261
0.00449376
0.00454385
0.00463719
0.00475626
0.00489837
0.00511202
0.00513956
0.00507229
0.00486965
0.00455829
0.00410798
0.00321274
0.00183785
0.00134805
0.00103033
0.000339229
0.00909716
0.0081746
0.00693367
0.00478969
0.0046965
0.00480081
0.00492017
0.00503228
0.00508575
0.0050577
0.00496738
0.00475923
0.00442387
0.00408093
0.00347666
0.00191299
0.00147471
0.00104531
0.0003427
0.00986318
0.00907282
0.00807296
0.0069064
0.00504028
0.00492408
0.00500615
0.00506433
0.00506607
0.00501133
0.00492354
0.00472867
0.0043777
0.00403281
0.00339084
0.0021505
0.0017522
0.00106755
0.000346392
0.0104528
0.00980185
0.00893028
0.00793187
0.00685016
0.00554534
0.00502872
0.00510203
0.00508614
0.0050157
0.00490821
0.00453223
0.0041424
0.00380142
0.00360223
0.0018188
0.00178783
0.00120281
0.000355122
0.0108886
0.0103561
0.00961901
0.00872517
0.00776379
0.00681768
0.00604486
0.00564142
0.00536862
0.00509988
0.00488911
0.00473844
0.00431158
0.00409267
0.00410736
0.00171265
0.00178682
0.00130341
0.000364656
0.0111983
0.0107523
0.0101263
0.00934793
0.00848045
0.00762345
0.00691867
0.00646
0.0060422
0.00561783
0.00521357
0.00485332
0.00455315
0.0046723
0.0048024
0.00198576
0.00178616
0.001343
0.000366467
0.0114127
0.0110275
0.010481
0.00979332
0.00901078
0.00820785
0.00748264
0.00691677
0.00641398
0.00589076
0.0053799
0.00499171
0.00489835
0.00525026
0.00533325
0.00325025
0.0017744
0.00134699
0.000367011
0.0115607
0.0112235
0.0107371
0.010116
0.00939602
0.00863235
0.0078941
0.00724392
0.00666112
0.00608046
0.00553232
0.00519998
0.00530185
0.00575723
0.00583617
0.00433569
0.00169317
0.00135188
0.000365289
0.0116639
0.0113737
0.0109426
0.0103799
0.00971338
0.00898556
0.00824852
0.00754895
0.00689693
0.00627287
0.0057366
0.00549023
0.00571393
0.0061761
0.00618838
0.0045856
0.00177608
0.00138583
0.000370242
0.011734
0.0114971
0.0111258
0.0106244
0.0100137
0.00932671
0.00860309
0.00788013
0.00718064
0.00652963
0.00602172
0.00584227
0.00608334
0.00646047
0.00628718
0.0040303
0.00190983
0.00142523
0.000376211
0.0117745
0.0115989
0.0112953
0.0108624
0.0103143
0.00967616
0.00897911
0.00825496
0.0075358
0.00687691
0.00639262
0.0062264
0.00638972
0.00658967
0.00616866
0.0027247
0.00198329
0.00146291
0.000379587
0.0117831
0.0116754
0.0114468
0.0110898
0.0106115
0.0100307
0.00937297
0.00866808
0.00795505
0.00730403
0.00682822
0.00662217
0.00664272
0.00662562
0.00604106
0.00238276
0.00199497
0.00148936
0.000380774
0.0117553
0.0117189
0.0115699
0.0112943
0.0108924
0.010377
0.00976992
0.0091009
0.00841322
0.00777938
0.00729612
0.00701674
0.00687827
0.00667876
0.00605193
0.00315154
0.00199873
0.00148394
0.000378378
0.0116867
0.0117211
0.011653
0.0114621
0.0111418
0.0106989
0.0101522
0.00953109
0.00888029
0.00826667
0.0077652
0.00740389
0.00713111
0.006824
0.00627342
0.00476076
0.00193945
0.00146011
0.000371539
0.0115745
0.0116757
0.0116863
0.0115805
0.011345
0.0109806
0.010502
0.0099373
0.00932913
0.00873524
0.00821147
0.0077764
0.00740683
0.00705175
0.00660604
0.00566395
0.00277677
0.00144045
0.000361056
0.0114188
0.0115795
0.0116631
0.0116396
0.0114897
0.0112079
0.0108036
0.0103011
0.00973863
0.00916379
0.00861893
0.00812393
0.00768698
0.00730843
0.00692048
0.00617352
0.00397071
0.00134033
0.000354294
0.0112221
0.0114329
0.0115811
0.011634
0.0115673
0.0113693
0.0110434
0.0106078
0.0100939
0.00953981
0.00897947
0.00843909
0.00795433
0.00756014
0.00719536
0.00651117
0.00464643
0.00124316
0.000353217
0.010989
0.0112394
0.0114418
0.0115624
0.0115734
0.0114576
0.0112116
0.0108465
0.0103854
0.0098574
0.00929144
0.00872067
0.00820099
0.00778754
0.00741184
0.00670249
0.00486018
0.00137768
0.000358729
0.0107248
0.0110043
0.0112499
0.0114279
0.0115083
0.0114698
0.0113028
0.0110105
0.0106073
0.0101144
0.0095564
0.00897082
0.00842366
0.00797523
0.00754339
0.00672913
0.00460666
0.00161294
0.000367436
0.0104346
0.0107335
0.0110117
0.0112361
0.0113762
0.0114078
0.0113159
0.011097
0.0107573
0.0103102
0.00977603
0.00919214
0.0086236
0.00812328
0.00759535
0.00661607
0.00376363
0.00167002
0.000411877
0.0101221
0.0104319
0.0107332
0.0109938
0.0111834
0.0112762
0.0112538
0.0111068
0.0108346
0.0104439
0.00995013
0.00938586
0.00880694
0.00825205
0.0076217
0.00650207
0.00315353
0.00164052
0.000397795
0.0097899
0.0101029
0.0104188
0.0107065
0.0109361
0.0110812
0.0111212
0.0110427
0.0108398
0.010514
0.0100754
0.00954925
0.00897792
0.00838401
0.00767301
0.0064904
0.00320405
0.00161985
0.000376344
0.00943937
0.00974795
0.010071
0.0103778
0.010639
0.0108279
0.0109228
0.0109075
0.0107731
0.010517
0.0101445
0.0096729
0.0091305
0.00852563
0.00777454
0.0066054
0.0040013
0.0016391
0.000357706
0.00907376
0.00936878
0.00969077
0.010009
0.010294
0.010519
0.0106614
0.0107032
0.0106336
0.0104478
0.0101467
0.0097406
0.00924535
0.00866001
0.00791756
0.00684077
0.00504387
0.00190986
0.000349125
0.00869981
0.00896889
0.00927974
0.00960079
0.00990182
0.0101554
0.010338
0.0104309
0.0104206
0.0103006
0.0100691
0.00973125
0.00929277
0.00874596
0.00804079
0.00705904
0.00554466
0.0023742
0.000350064
0.00832875
0.00855639
0.00884317
0.00915634
0.00946426
0.00973786
0.00995247
0.0100887
0.0101306
0.0100691
0.00990097
0.00962567
0.00924041
0.00873197
0.00805922
0.00715403
0.0057675
0.00275363
0.00035947
0.0079821
0.0081489
0.00839434
0.00868561
0.00898883
0.00927216
0.00950868
0.00967729
0.00976195
0.0097501
0.00963527
0.00941138
0.00906934
0.00860248
0.00798326
0.00710649
0.00577676
0.00337264
0.000390845
0.00769452
0.00777836
0.00795931
0.00821058
0.00849473
0.00877496
0.00902114
0.00920988
0.0093235
0.00934864
0.0092747
0.00909255
0.00878939
0.00836194
0.00775698
0.00687525
0.00554765
0.00328939
0.000392003
0.00751638
0.0074927
0.00758045
0.00776918
0.00801862
0.00828109
0.00852221
0.00871652
0.0088444
0.00889057
0.00884266
0.00868908
0.00841507
0.00799665
0.00736243
0.00640812
0.00494742
0.00245546
0.000382094
0.00751774
0.00736444
0.00731916
0.00740952
0.00761435
0.00784686
0.00806765
0.00825146
0.00837751
0.00842838
0.00838904
0.00824419
0.00797233
0.00753196
0.00683267
0.00572955
0.00410253
0.00212909
0.000409799
0.00779466
0.00751482
0.0072676
0.00715774
0.0073305
0.00753635
0.00772826
0.00788928
0.00800022
0.00804217
0.00799731
0.00784624
0.00756058
0.00708644
0.00631308
0.0050737
0.0038389
0.00255518
0.000419287
0.00847634
0.00822753
0.00779333
0.00714115
0.00717054
0.00738233
0.00755468
0.00769484
0.00778938
0.00781954
0.00776594
0.00760659
0.00730961
0.00681886
0.00603333
0.00481825
0.00378779
0.00342444
0.000489116
)
;

boundaryField
{
    leftWall
    {
        type            nutkWallFunction;
        blending        stepwise;
        Cmu             0.09;
        kappa           0.41;
        E               9.8;
        value           nonuniform List<scalar> 
50
(
1.00609e-05
1.23682e-05
1.31813e-05
1.33523e-05
1.31648e-05
1.29566e-05
1.27598e-05
1.25035e-05
1.21432e-05
7.52998e-06
1.59703e-05
1.9087e-05
1.97648e-05
2.01128e-05
2.0313e-05
2.05325e-05
2.06867e-05
2.07801e-05
2.08025e-05
2.07459e-05
2.06116e-05
2.041e-05
2.01544e-05
1.98531e-05
1.95193e-05
1.91723e-05
1.88316e-05
1.85152e-05
1.82383e-05
1.80126e-05
1.78464e-05
1.77428e-05
1.77018e-05
1.77207e-05
1.77952e-05
1.79195e-05
1.80873e-05
1.8293e-05
1.85333e-05
1.88098e-05
1.91312e-05
1.95145e-05
1.99887e-05
2.05967e-05
2.14018e-05
2.25078e-05
2.41062e-05
2.66294e-05
3.13935e-05
4.19567e-05
)
;
    }
    rightWall
    {
        type            nutkWallFunction;
        blending        stepwise;
        Cmu             0.09;
        kappa           0.41;
        E               9.8;
        value           nonuniform List<scalar> 
50
(
2.60299e-05
3.28499e-05
3.68448e-05
3.92196e-05
4.07448e-05
4.16101e-05
4.2137e-05
4.23958e-05
4.23764e-05
4.19247e-05
4.06071e-05
3.8402e-05
3.55681e-05
3.27762e-05
3.15571e-05
3.27019e-05
3.5547e-05
3.66911e-05
3.70109e-05
3.74672e-05
3.77639e-05
3.84571e-05
3.94834e-05
4.00056e-05
4.02583e-05
3.99677e-05
4.00813e-05
4.04689e-05
4.08898e-05
4.12164e-05
4.13005e-05
4.10771e-05
4.04466e-05
3.97146e-05
3.92579e-05
3.93577e-05
4.0626e-05
4.4824e-05
4.57233e-05
4.28561e-05
4.12436e-05
3.98533e-05
3.93904e-05
3.99929e-05
4.48538e-05
4.69159e-05
4.39409e-05
4.62276e-05
4.79429e-05
5.90083e-05
)
;
    }
    lowerWall
    {
        type            nutkWallFunction;
        blending        stepwise;
        Cmu             0.09;
        kappa           0.41;
        E               9.8;
        value           nonuniform List<scalar> 
62
(
4.79872e-06
5.94049e-06
6.89901e-06
7.55436e-06
7.97934e-06
8.27559e-06
8.51679e-06
8.73949e-06
8.95901e-06
9.17306e-06
9.37545e-06
9.55831e-06
9.71598e-06
9.83703e-06
9.89966e-06
9.87391e-06
9.73982e-06
9.47397e-06
9.07862e-06
8.61636e-06
8.12261e-06
7.68472e-06
6.96569e-06
6.96569e-06
1.84326e-05
2.04428e-05
2.2156e-05
2.38105e-05
2.57357e-05
2.84476e-05
3.23217e-05
3.27801e-05
3.2341e-05
3.39294e-05
3.93559e-05
1.76313e-05
4.59786e-05
4.68495e-05
4.74123e-05
4.76754e-05
4.72746e-05
4.69531e-05
4.78608e-05
1.76313e-05
1.67445e-05
1.85889e-05
1.97114e-05
2.05125e-05
2.09978e-05
2.11977e-05
2.16274e-05
2.22063e-05
2.28277e-05
2.34328e-05
2.39835e-05
2.44441e-05
2.47364e-05
2.45966e-05
2.35793e-05
2.14959e-05
1.79411e-05
1.17619e-05
)
;
    }
    atmosphere
    {
        type            calculated;
        value           nonuniform List<scalar> 
46
(
0.000344531
0.009
0.009
0.009
0.009
0.009
0.009
0.009
0.009
0.009
0.009
0.009
0.009
0.009
0.009
0.009
0.009
0.009
0.009
0.009
0.009
0.009
0.009
0.009
0.009
0.009
0.009
0.009
0.009
0.009
0.009
0.00717054
0.00738233
0.00755468
0.00769484
0.00778938
0.00781954
0.00776594
0.00760659
0.00730961
0.00681886
0.00603333
0.009
0.009
0.009
0.000489116
)
;
    }
    defaultFaces
    {
        type            empty;
    }
}


// ************************************************************************* //
