/*--------------------------------*- C++ -*----------------------------------*\
| =========                 |                                                 |
| \\      /  F ield         | OpenFOAM: The Open Source CFD Toolbox           |
|  \\    /   O peration     | Version:  v2012                                 |
|   \\  /    A nd           | Website:  www.openfoam.com                      |
|    \\/     M anipulation  |                                                 |
\*---------------------------------------------------------------------------*/
FoamFile
{
    version     2.0;
    format      ascii;
    class       volScalarField;
    location    "0.7";
    object      p;
}
// * * * * * * * * * * * * * * * * * * * * * * * * * * * * * * * * * * * * * //

dimensions      [1 -1 -2 0 0 0 0];


internalField   nonuniform List<scalar> 
2268
(
536.562
535.177
539.334
547.849
559.408
573.124
588.64
605.599
623.912
643.231
663.267
683.772
704.496
725.181
745.599
765.504
784.59
802.694
819.422
833.036
842.187
849.881
858.521
477.437
475.482
479.489
488.017
499.787
513.678
529.375
546.625
565.073
584.453
604.505
625.002
645.693
666.371
686.812
706.833
726.25
744.75
761.937
776.538
785.569
789.622
796.609
416.424
414.969
419.668
428.421
440.234
454.249
470.149
487.575
506.19
525.687
545.804
566.332
587.037
607.714
628.174
648.265
667.812
686.487
703.793
718.704
728.373
730.897
735.785
354.361
353.766
359.427
368.518
380.481
394.657
410.699
428.321
447.141
466.808
487.05
507.672
528.449
549.18
569.697
589.861
609.478
628.231
645.536
660.348
670.477
672.904
676.154
291.996
292.146
298.762
308.237
320.391
334.696
350.929
368.782
387.856
407.749
428.177
448.961
469.872
490.717
511.344
531.625
551.344
570.187
587.595
602.579
613.187
615.882
617.815
229.506
230.207
237.663
247.541
259.9
274.342
290.79
308.924
328.313
348.492
369.164
390.173
411.28
432.293
453.088
473.55
493.425
512.424
530.105
545.579
557.082
560.724
560.048
166.501
168.095
175.727
186.2
198.784
213.381
230.116
248.651
268.486
289.048
310.026
331.318
352.671
373.894
394.908
415.617
435.707
454.936
473.063
489.424
502.712
508.701
501.259
102.726
105.048
112.41
123.216
135.997
150.855
168.146
187.445
208.112
229.344
250.757
272.422
294.067
315.517
336.771
357.768
378.111
397.636
416.376
434.099
450.522
461.605
448.587
1158.65
1020.18
745.472
564.84
589.105
666.965
659.169
576.671
493.221
448.075
454.935
523.285
673.05
903.44
1144.34
1301.35
1347.39
1309.17
1264.33
1163.99
893.533
528.356
374.902
481.66
616.874
618.028
521.824
425.93
373.39
376.169
434.808
568.213
783.237
1019.54
1183.28
1246.56
1231.56
1202.74
1204.46
656.069
339.626
322.754
459.193
621.857
602.628
464.789
349.894
292.345
292.149
341.477
458.109
659.814
895.573
1067.59
1152.78
1162.93
1138.64
1110.9
448.657
291.929
309.103
459.104
624.492
593.621
435.156
282.972
205.734
206.59
243.456
343.12
539.799
785.117
965.224
1064.5
1096.96
1074.23
919.772
370.754
278.917
294.964
430.459
587.535
570.049
421.261
248.727
171.938
166.378
170.682
232.555
421.07
684.23
871.106
976.641
1023.06
1006.85
774.161
371.579
276.488
281.716
369.13
449.738
473.205
358.443
220.744
174.063
162.741
155.375
169.79
313.846
590.815
783.021
889.247
942.97
935.801
737.846
414.803
294.719
262.502
277.306
284.021
291.46
253.267
190.69
168.234
160.434
156.674
160.025
241.07
505.749
699.863
801.79
859.846
862.415
749.033
494.975
317.748
231.029
189.419
152.633
168.928
163.15
150.775
157.764
156.605
154.734
159.018
202.321
429.462
618.798
714.742
774.854
787.81
32.7025
34.1375
37.9197
44.6128
53.3555
64.3016
77.9517
94.4085
113.507
134.79
157.338
180.024
202.364
224.258
245.921
267.401
288.125
308.064
327.799
347.918
369.468
391.289
412.025
0.16151
0.201845
0.501774
1.18507
2.73672
5.34655
9.24774
14.8385
22.5061
33.1597
47.3664
63.627
81.3691
100.758
122.756
145.494
166.66
185.957
205.557
226.441
248.398
271.584
301.552
-0.0526649
-0.0599515
-0.053227
-0.0382141
-0.026888
-0.0320392
-0.0468932
-0.0591196
-0.0385864
0.309742
2.05496
5.50004
11.0131
18.7825
29.6623
43.1016
56.2203
70.1986
86.9122
105.909
125.813
147.833
175.9
-0.212661
-0.210798
-0.204291
-0.208664
-0.220322
-0.229816
-0.235761
-0.235503
-0.222918
-0.207724
-0.224627
-0.282951
-0.328739
-0.34897
-0.32702
0.00679889
1.93149
7.23459
14.8892
23.6025
31.7939
40.9146
55.8414
-0.347751
-0.35474
-0.350355
-0.350152
-0.353868
-0.357949
-0.361514
-0.363481
-0.364218
-0.374831
-0.398702
-0.414749
-0.414821
-0.399533
-0.370939
-0.33858
-0.342401
-0.423483
-0.430984
-0.340072
-0.189632
0.0912947
2.66959
-0.503762
-0.503465
-0.501111
-0.499459
-0.499632
-0.500831
-0.502396
-0.503695
-0.504973
-0.510323
-0.521677
-0.53023
-0.531472
-0.52492
-0.510313
-0.488501
-0.463808
-0.43512
-0.39122
-0.334031
-0.267681
-0.195137
-0.102548
-0.652145
-0.651804
-0.650503
-0.649342
-0.648986
-0.649143
-0.649379
-0.649352
-0.649088
-0.649888
-0.653133
-0.656056
-0.655208
-0.648315
-0.634574
-0.615208
-0.593807
-0.568071
-0.527034
-0.466866
-0.388507
-0.298319
-0.208253
-0.801313
-0.800428
-0.799277
-0.798241
-0.797551
-0.796984
-0.79625
-0.795146
-0.79369
-0.792347
-0.791557
-0.790012
-0.785675
-0.776873
-0.762898
-0.744268
-0.722155
-0.694322
-0.65439
-0.598472
-0.526344
-0.441142
-0.341155
-0.950147
-0.949109
-0.947948
-0.946854
-0.945834
-0.944689
-0.943203
-0.941226
-0.938744
-0.935916
-0.932785
-0.928598
-0.922203
-0.912532
-0.898895
-0.88105
-0.858794
-0.830543
-0.793158
-0.744856
-0.685853
-0.619717
-0.54991
-1.09858
-1.09763
-1.09651
-1.09536
-1.09412
-1.09258
-1.09056
-1.08794
-1.08467
-1.0808
-1.0763
-1.07077
-1.06354
-1.05389
-1.04115
-1.02481
-1.00428
-0.978554
-0.946258
-0.906905
-0.861377
-0.813734
-0.768928
-1.24669
-1.24593
-1.2449
-1.24374
-1.24237
-1.2406
-1.23827
-1.23526
-1.23151
-1.22706
-1.22192
-1.2159
-1.20863
-1.19961
-1.18828
-1.1741
-1.15655
-1.13506
-1.10917
-1.07906
-1.04595
-1.01359
-0.98618
-1.3945
-1.39394
-1.39307
-1.39196
-1.39056
-1.38871
-1.38626
-1.38308
-1.37916
-1.37454
-1.36927
-1.36335
-1.35659
-1.34868
-1.33918
-1.32762
-1.31363
-1.29702
-1.27785
-1.25674
-1.23503
-1.21603
-1.20343
-1.54201
-1.54166
-1.54098
-1.53999
-1.53866
-1.53687
-1.53446
-1.53133
-1.52748
-1.52298
-1.51796
-1.51253
-1.50667
-1.50021
-1.4928
-1.48411
-1.47391
-1.46227
-1.44963
-1.43688
-1.42544
-1.41814
-1.41839
-1.68923
-1.68908
-1.6886
-1.68779
-1.68664
-1.68501
-1.68279
-1.67988
-1.67629
-1.67214
-1.66761
-1.66292
-1.65819
-1.65336
-1.6482
-1.64245
-1.63601
-1.62914
-1.62251
-1.61721
-1.61471
-1.61737
-1.62821
-1.83615
-1.83621
-1.83592
-1.83533
-1.83443
-1.83308
-1.83116
-1.8286
-1.82543
-1.82178
-1.81789
-1.81408
-1.81058
-1.80744
-1.80455
-1.8017
-1.79885
-1.79636
-1.79506
-1.79616
-1.80115
-1.81201
-1.83132
-1.98283
-1.983
-1.98291
-1.98259
-1.98199
-1.98099
-1.97948
-1.97738
-1.97473
-1.97168
-1.96853
-1.96564
-1.96336
-1.96188
-1.96116
-1.96106
-1.96156
-1.96302
-1.96632
-1.97275
-1.9838
-2.00118
-2.02705
-2.12924
-2.12949
-2.12959
-2.12954
-2.12927
-2.12867
-2.12764
-2.12609
-2.12405
-2.12168
-2.1193
-2.11732
-2.11619
-2.11621
-2.11747
-2.11988
-2.12342
-2.12839
-2.1356
-2.14635
-2.16214
-2.18447
-2.21522
-2.27536
-2.27568
-2.27595
-2.27615
-2.27623
-2.27607
-2.27556
-2.27462
-2.27325
-2.2716
-2.27
-2.26889
-2.26878
-2.27009
-2.27304
-2.27762
-2.28382
-2.29183
-2.30234
-2.31653
-2.33585
-2.36168
-2.39576
-2.42117
-2.42155
-2.42196
-2.42242
-2.42283
-2.42312
-2.42315
-2.42284
-2.42218
-2.4213
-2.42048
-2.42017
-2.42094
-2.42328
-2.42756
-2.43389
-2.44228
-2.45284
-2.46607
-2.48296
-2.50481
-2.53289
-2.56882
-2.56665
-2.56707
-2.56761
-2.56829
-2.56903
-2.56974
-2.5703
-2.57063
-2.5707
-2.5706
-2.57057
-2.57103
-2.57254
-2.57568
-2.58091
-2.5885
-2.59853
-2.61109
-2.62649
-2.64547
-2.66909
-2.69846
-2.73505
-2.71175
-2.71222
-2.71286
-2.71374
-2.71477
-2.71587
-2.71694
-2.71789
-2.71868
-2.71936
-2.72012
-2.72133
-2.7235
-2.72723
-2.73309
-2.74146
-2.75255
-2.76649
-2.78347
-2.804
-2.82884
-2.85886
-2.89534
-2.85644
-2.85695
-2.85767
-2.85872
-2.86001
-2.86146
-2.86299
-2.86452
-2.866
-2.86744
-2.86898
-2.87093
-2.87372
-2.87793
-2.88416
-2.89291
-2.90452
-2.9192
-2.93713
-2.95863
-2.98422
-3.01447
-3.05045
-3.00074
-3.00119
-3.002
-3.00319
-3.0047
-3.00645
-3.00838
-3.01043
-3.01253
-3.0147
-3.017
-3.01968
-3.02309
-3.02774
-3.03421
-3.04306
-3.05474
-3.06957
-3.08779
-3.10965
-3.13547
-3.16557
-3.20079
-3.14453
-3.14498
-3.14585
-3.14715
-3.14882
-3.15081
-3.15308
-3.15556
-3.15822
-3.16103
-3.16404
-3.16742
-3.17145
-3.17654
-3.18322
-3.19203
-3.2035
-3.21805
-3.23599
-3.2576
-3.28307
-3.31258
-3.34676
-3.28781
-3.28826
-3.28917
-3.29055
-3.29235
-3.29453
-3.29706
-3.29989
-3.30299
-3.30635
-3.30999
-3.31402
-3.31864
-3.32419
-3.33109
-3.33985
-3.35099
-3.365
-3.38227
-3.40312
-3.42772
-3.45617
-3.48894
-3.43057
-3.43103
-3.43197
-3.4334
-3.43528
-3.43759
-3.4403
-3.44339
-3.44684
-3.45063
-3.45478
-3.45936
-3.46452
-3.4705
-3.47765
-3.48639
-3.49721
-3.5106
-3.527
-3.54677
-3.57013
-3.59713
-3.62817
-3.57281
-3.57328
-3.57423
-3.57569
-3.57761
-3.58
-3.58282
-3.58608
-3.58976
-3.59386
-3.59839
-3.6034
-3.609
-3.61536
-3.62274
-3.63149
-3.64203
-3.65482
-3.67031
-3.68888
-3.7108
-3.73612
-3.76519
-3.71453
-3.71499
-3.71595
-3.71741
-3.71935
-3.72176
-3.72464
-3.72799
-3.7318
-3.73609
-3.74086
-3.74615
-3.75205
-3.75868
-3.76624
-3.77499
-3.78528
-3.79753
-3.81214
-3.82952
-3.84994
-3.87349
-3.90051
-3.85573
-3.85619
-3.85714
-3.85859
-3.86052
-3.86292
-3.86579
-3.86915
-3.873
-3.87736
-3.88224
-3.88767
-3.89373
-3.90049
-3.90812
-3.91681
-3.92684
-3.93857
-3.95236
-3.96859
-3.98754
-4.00933
-4.03431
-3.99643
-3.99688
-3.99781
-3.99924
-4.00112
-4.00347
-4.0063
-4.00962
-4.01342
-4.01775
-4.02262
-4.02805
-4.03411
-4.04087
-4.04843
-4.05695
-4.06667
-4.07786
-4.09085
-4.10598
-4.12351
-4.14359
-4.16657
-4.13663
-4.13708
-4.13798
-4.13937
-4.14119
-4.14347
-4.14621
-4.14942
-4.15312
-4.15733
-4.16208
-4.1674
-4.17333
-4.17993
-4.18729
-4.19553
-4.20483
-4.21543
-4.22759
-4.24163
-4.25778
-4.27619
-4.29721
-4.27637
-4.2768
-4.27767
-4.27901
-4.28076
-4.28294
-4.28556
-4.28862
-4.29216
-4.29619
-4.30073
-4.30583
-4.31151
-4.31784
-4.32487
-4.3327
-4.34148
-4.3514
-4.36269
-4.37561
-4.39038
-4.40714
-4.4262
-4.41566
-4.41608
-4.41692
-4.41821
-4.41987
-4.42193
-4.42439
-4.42727
-4.4306
-4.43438
-4.43866
-4.44346
-4.4488
-4.45474
-4.46133
-4.46865
-4.47681
-4.48596
-4.49631
-4.50807
-4.52145
-4.53657
-4.55361
-4.55454
-4.55497
-4.55578
-4.55699
-4.55855
-4.56046
-4.56275
-4.56542
-4.56849
-4.572
-4.57595
-4.58038
-4.58531
-4.59079
-4.59685
-4.60356
-4.61101
-4.61933
-4.62867
-4.63923
-4.6512
-4.66478
-4.67951
-4.69301
-4.69353
-4.69429
-4.69541
-4.69685
-4.6986
-4.70068
-4.70312
-4.70591
-4.7091
-4.71268
-4.7167
-4.72117
-4.72612
-4.73159
-4.73763
-4.7443
-4.75171
-4.76
-4.76932
-4.7798
-4.79155
-4.80469
-4.83119
-4.83174
-4.83249
-4.83352
-4.83482
-4.83639
-4.83825
-4.84042
-4.84291
-4.84574
-4.84893
-4.85249
-4.85646
-4.86084
-4.86568
-4.87099
-4.87685
-4.88332
-4.89053
-4.89858
-4.90759
-4.91763
-4.92892
-4.96907
-4.9697
-4.97045
-4.97137
-4.97251
-4.97388
-4.9755
-4.97738
-4.97954
-4.982
-4.98476
-4.98785
-4.99128
-4.99507
-4.99923
-5.0038
-5.00881
-5.01433
-5.02044
-5.02724
-5.03481
-5.04319
-5.0526
-5.10669
-5.10748
-5.10823
-5.10903
-5.10998
-5.11113
-5.11248
-5.11405
-5.11587
-5.11793
-5.12025
-5.12284
-5.12572
-5.12889
-5.13236
-5.13617
-5.14032
-5.14488
-5.14991
-5.15548
-5.16164
-5.16843
-5.17601
-5.24411
-5.24513
-5.24592
-5.24655
-5.24727
-5.24816
-5.24922
-5.25048
-5.25193
-5.25358
-5.25545
-5.25753
-5.25984
-5.26238
-5.26516
-5.26819
-5.27149
-5.2751
-5.27906
-5.28343
-5.28823
-5.2935
-5.29934
-5.38148
-5.3828
-5.3836
-5.38387
-5.38426
-5.38486
-5.38563
-5.38656
-5.38766
-5.38891
-5.39032
-5.39189
-5.39363
-5.39555
-5.39764
-5.3999
-5.40236
-5.40503
-5.40796
-5.41116
-5.41467
-5.41849
-5.42269
-5.51953
-5.52089
-5.52154
-5.52098
-5.52089
-5.5212
-5.5217
-5.52234
-5.52309
-5.52394
-5.5249
-5.52597
-5.52715
-5.52844
-5.52985
-5.53136
-5.533
-5.53476
-5.53668
-5.53876
-5.54101
-5.54344
-5.54608
-5.65826
-5.66033
-5.66082
-5.65953
-5.65921
-5.6593
-5.65953
-5.65982
-5.66016
-5.66054
-5.66096
-5.66141
-5.66191
-5.66245
-5.66303
-5.66366
-5.66433
-5.66504
-5.6658
-5.66661
-5.66746
-5.66835
-5.66928
471.917
500.766
519.874
544.436
340.99
364.186
387.729
428.931
205.293
224.728
245.207
272.742
73.9734
87.6485
103.976
128.95
6.8815
10.478
14.8822
26.5208
0.140516
0.518826
1.28116
2.83779
-0.116827
-0.0367492
0.0640454
0.167514
-0.23189
-0.15949
-0.109055
-0.123412
-0.492419
-0.458419
-0.434248
-0.434174
-0.737295
-0.717286
-0.698857
-0.680692
-0.968577
-0.955294
-0.941313
-0.930507
-1.19916
-1.19517
-1.18923
-1.18842
-1.42602
-1.43216
-1.43729
-1.44617
-1.64558
-1.66054
-1.6769
-1.69544
-1.85618
-1.87768
-1.9025
-1.92919
-2.05734
-2.08318
-2.11325
-2.14508
-2.24947
-2.27808
-2.31093
-2.34514
-2.43268
-2.46304
-2.49726
-2.53214
-2.60701
-2.6382
-2.673
-2.70784
-2.77318
-2.80423
-2.83886
-2.87328
-2.93254
-2.96269
-2.9964
-3.02996
-3.08641
-3.11533
-3.14764
-3.17985
-3.23552
-3.26325
-3.29402
-3.3246
-3.38023
-3.40685
-3.43619
-3.4651
-3.52098
-3.54649
-3.57447
-3.60181
-3.65852
-3.68278
-3.70934
-3.73515
-3.79366
-3.81648
-3.84149
-3.86572
-3.927
-3.94827
-3.97157
-3.99412
-4.05883
-4.07849
-4.10001
-4.12081
-4.18916
-4.20724
-4.227
-4.24604
-4.31792
-4.33449
-4.35255
-4.36989
-4.44507
-4.46018
-4.47663
-4.49238
-4.57066
-4.58437
-4.59929
-4.61353
-4.69483
-4.70716
-4.7206
-4.73343
-4.81801
-4.82887
-4.8408
-4.85226
-4.94032
-4.94972
-4.96014
-4.97017
-5.06211
-5.07003
-5.07888
-5.08744
-5.18368
-5.19012
-5.19738
-5.20444
-5.30525
-5.31024
-5.31591
-5.32145
-5.42691
-5.4305
-5.4346
-5.43864
-5.5487
-5.55092
-5.55348
-5.55602
-5.67019
-5.67095
-5.67184
-5.67274
707.008
561.755
308.037
163.236
130.217
123.633
123.046
109.358
107.278
141.159
148.288
149.495
154.224
178.376
335.202
499.49
586.236
646.825
669.346
541.49
403.964
202.433
120.34
121.155
122.017
119.364
112.685
103.574
125.748
137.592
140.805
144.603
160.983
274.141
366.624
429.676
494.908
521.49
328.075
266.78
132.577
120.551
121.619
121.277
118.992
113.752
110.343
119.449
130.652
134.957
134.543
139.454
235.402
272.332
310.142
373.128
399.156
178.125
171.707
115.403
121.124
121.555
121.028
119.696
117.339
116.455
120.41
126.052
129.469
126.873
129.745
206.425
232.624
251.191
291.129
307.777
61.6532
93.2118
104.785
121.758
121.493
121.147
120.45
119.594
119.602
121.557
123.996
119.871
105.352
139.746
185.027
211.524
224.416
243.945
236.58
8.62819
26.3589
62.559
113.241
121.227
121.343
120.898
120.409
120.294
120.979
122.62
118.11
88.8247
142.448
174.739
196.162
201.65
199.788
176.606
0.373102
2.42265
22.6765
87.3737
120.203
121.199
120.924
120.409
120.107
120.169
118.737
100.148
87.9971
132.897
158.893
171.51
166.954
152.7
130.705
-0.32123
-0.814656
-0.97745
38.9161
107.14
120.442
120.772
120.114
119.844
120.128
118.207
77.4954
85.4585
106.509
120.243
118.254
110.902
111.758
96.6607
-0.49796
-0.798427
-2.8778
5.57525
58.9673
113.814
120.024
119.824
119.839
119.871
100.725
49.2883
63.1087
68.1759
60.4292
46.9186
55.2273
72.3667
68.5337
-0.646072
-0.801841
-1.3422
-4.16209
19.6207
82.4162
117.053
118.996
118.302
111.816
62.3875
31.9493
29.8011
27.5209
14.1362
15.5486
31.1546
45.3898
50.2965
-0.908434
-0.904497
-1.12202
-1.62038
-0.279458
27.4847
84.961
115.96
109.72
60.4163
28.0217
25.0995
8.88717
5.98576
5.07284
7.84197
14.9368
25.3158
31.0395
-1.19405
-1.20978
-1.268
-1.70148
-2.81877
-3.04055
11.2442
37.5505
23.6888
11.275
23.1272
23.8588
8.0096
0.979662
1.61843
3.32917
4.55817
12.491
20.4645
-1.47099
-1.52949
-1.59691
-1.7047
-2.22816
-3.34205
-3.72583
-2.88311
-0.0556844
8.00628
11.5516
3.10504
-1.98712
-1.73488
-0.603015
0.539283
1.04822
4.99385
12.7401
-1.73198
-1.80997
-1.9183
-2.04483
-2.20762
-2.68929
-3.98929
-4.84025
-4.43139
-3.88752
-3.5015
-3.03185
-3.15975
-2.8954
-2.33382
-1.89297
-1.53851
1.59785
8.41897
-1.97531
-2.05932
-2.17969
-2.3435
-2.5449
-2.80637
-3.10057
-3.42736
-3.51277
-3.48695
-3.50925
-3.56387
-3.56716
-3.50482
-3.4702
-3.76868
-3.52062
0.155791
5.7726
-2.19775
-2.28481
-2.40158
-2.55848
-2.76037
-2.99591
-3.19908
-3.36432
-3.45762
-3.49302
-3.49594
-3.55917
-3.69641
-3.84323
-4.01762
-4.52806
-4.22171
-1.4385
2.76933
-2.40036
-2.4872
-2.59737
-2.73459
-2.90077
-3.08796
-3.26498
-3.3957
-3.46761
-3.50507
-3.53018
-3.62127
-3.81241
-4.00598
-4.18024
-4.53813
-4.34302
-3.19081
0.390578
-2.58714
-2.67039
-2.77225
-2.89272
-3.02863
-3.17198
-3.30734
-3.41539
-3.48786
-3.54517
-3.611
-3.72938
-3.89711
-4.0361
-4.1181
-4.21509
-4.17651
-4.22398
-1.41371
-2.76141
-2.83955
-2.93219
-3.03834
-3.15366
-3.27066
-3.37983
-3.47318
-3.54753
-3.61766
-3.70222
-3.81743
-3.94332
-4.02409
-4.02635
-3.93288
-4.01068
-4.31862
-2.15715
-2.92518
-2.99799
-3.0818
-3.17536
-3.27475
-3.37453
-3.4687
-3.55328
-3.62811
-3.7031
-3.78994
-3.89407
-3.99742
-4.05378
-4.01917
-3.76615
-3.83887
-4.79389
-2.17176
-3.08002
-3.14775
-3.22358
-3.3063
-3.39266
-3.47904
-3.56204
-3.63986
-3.71363
-3.79023
-3.87716
-3.97755
-4.07991
-4.15251
-4.15903
-3.98163
-4.32276
-5.09334
-2.2382
-3.22765
-3.2905
-3.35918
-3.4326
-3.5082
-3.58372
-3.65748
-3.72904
-3.80023
-3.87608
-3.96229
-4.06248
-4.17276
-4.27713
-4.35782
-4.56279
-4.73875
-4.86893
-2.26852
-3.36972
-3.42779
-3.48994
-3.55521
-3.62175
-3.68828
-3.75411
-3.81952
-3.88629
-3.95813
-4.03957
-4.13465
-4.24432
-4.36437
-4.4876
-4.80663
-4.36963
-4.60826
-2.7214
-3.50738
-3.56077
-3.61685
-3.67487
-3.73353
-3.79227
-3.85093
-3.90987
-3.97032
-4.03461
-4.10583
-4.18703
-4.27953
-4.3827
-4.48669
-4.68526
-4.7179
-4.89197
-3.57396
-3.64133
-3.69021
-3.74066
-3.7921
-3.84372
-3.89541
-3.94724
-3.99934
-4.05202
-4.10621
-4.16329
-4.22455
-4.28957
-4.35578
-4.41358
-4.48479
-4.56128
-4.44592
-4.32369
-3.77207
-3.8167
-3.86196
-3.90743
-3.95262
-3.99773
-4.04294
-4.08799
-4.13233
-4.17558
-4.21768
-4.25839
-4.29636
-4.32904
-4.35333
-4.38355
-4.43088
-4.46543
-4.45416
-3.90009
-3.94078
-3.98132
-4.02141
-4.06074
-4.09968
-4.13845
-4.17655
-4.2128
-4.24592
-4.27481
-4.29824
-4.31425
-4.32023
-4.3142
-4.30292
-4.28611
-4.32661
-4.18554
-4.02594
-4.06294
-4.09925
-4.13455
-4.16863
-4.20189
-4.23458
-4.2661
-4.29506
-4.31983
-4.33883
-4.35009
-4.35118
-4.33894
-4.30858
-4.25501
-4.16878
-4.16538
-4.12911
-4.15004
-4.18358
-4.21606
-4.24715
-4.27663
-4.30487
-4.33208
-4.3577
-4.38047
-4.39895
-4.4117
-4.41661
-4.41108
-4.39196
-4.35203
-4.27323
-4.12733
-3.99357
-3.88562
-4.27268
-4.30295
-4.33195
-4.3593
-4.38479
-4.40874
-4.43131
-4.45201
-4.46981
-4.48386
-4.49343
-4.49702
-4.49262
-4.47849
-4.44732
-4.37649
-4.27127
-4.35625
-4.08942
-4.39402
-4.42118
-4.44697
-4.47094
-4.49291
-4.51322
-4.53202
-4.54888
-4.563
-4.57411
-4.58242
-4.58761
-4.5889
-4.5864
-4.57451
-4.53263
-4.53079
-4.62759
-3.95123
-4.51413
-4.53837
-4.56115
-4.582
-4.60077
-4.61788
-4.63359
-4.6475
-4.65898
-4.66821
-4.67611
-4.68343
-4.69063
-4.69903
-4.70608
-4.6972
-4.79126
-4.8066
-4.18528
-4.63306
-4.65457
-4.67457
-4.69254
-4.70835
-4.72252
-4.73549
-4.74695
-4.75638
-4.76423
-4.77173
-4.78019
-4.7906
-4.8048
-4.82418
-4.84338
-4.94225
-4.91017
-4.47322
-4.75089
-4.76984
-4.78732
-4.80273
-4.81586
-4.8273
-4.83772
-4.84696
-4.85466
-4.8612
-4.86758
-4.87524
-4.88503
-4.89787
-4.9167
-4.93865
-4.98478
-5.04169
-4.79703
-4.86772
-4.88425
-4.89947
-4.91267
-4.92353
-4.93257
-4.94061
-4.94796
-4.95413
-4.95921
-4.96369
-4.96863
-4.97413
-4.98016
-4.98912
-4.99664
-4.98979
-5.02779
-4.82087
-4.98376
-4.99784
-5.01107
-5.02241
-5.03144
-5.03851
-5.04451
-5.0501
-5.05496
-5.05844
-5.06099
-5.06278
-5.06259
-5.06173
-5.06559
-5.06577
-5.0383
-5.04429
-4.79166
-5.099
-5.11103
-5.12224
-5.13193
-5.13953
-5.14515
-5.14954
-5.15342
-5.15695
-5.15926
-5.16028
-5.15998
-5.15728
-5.15359
-5.15581
-5.15203
-5.12103
-5.10853
-5.17478
-5.21397
-5.22385
-5.23311
-5.24129
-5.24772
-5.25229
-5.25555
-5.25815
-5.26026
-5.26153
-5.2615
-5.26061
-5.25915
-5.25629
-5.25169
-5.23936
-5.20087
-5.14387
-4.99417
-5.32893
-5.33659
-5.34391
-5.35062
-5.356
-5.35971
-5.36221
-5.36395
-5.36502
-5.3651
-5.36402
-5.3623
-5.36096
-5.35877
-5.34994
-5.33518
-5.30141
-5.23953
-5.0711
-5.44408
-5.44952
-5.45486
-5.46026
-5.46485
-5.46781
-5.46981
-5.47105
-5.47142
-5.47057
-5.46823
-5.4646
-5.46018
-5.45403
-5.44446
-5.43733
-5.43147
-5.37918
-5.27188
-5.55942
-5.56274
-5.5663
-5.57118
-5.57564
-5.57806
-5.58003
-5.58133
-5.5815
-5.58003
-5.57644
-5.57046
-5.56168
-5.54824
-5.52904
-5.53219
-5.57799
-5.57953
-6.39736
-5.67398
-5.67525
-5.67751
-5.68346
-5.68612
-5.68761
-5.68962
-5.69123
-5.69174
-5.69053
-5.68694
-5.68038
-5.66981
-5.65067
-5.61433
-5.6213
-5.82995
-6.45922
-9.35222
)
;

boundaryField
{
    leftWall
    {
        type            calculated;
        value           nonuniform List<scalar> 
50
(
536.562
477.437
416.424
354.361
291.996
229.506
166.501
102.726
32.7025
0.16151
-0.0526649
-0.212661
-0.347751
-0.503762
-0.652145
-0.801313
-0.950147
-1.09858
-1.24669
-1.3945
-1.54201
-1.68923
-1.83615
-1.98283
-2.12924
-2.27536
-2.42117
-2.56665
-2.71175
-2.85644
-3.00074
-3.14453
-3.28781
-3.43057
-3.57281
-3.71453
-3.85573
-3.99643
-4.13663
-4.27637
-4.41566
-4.55454
-4.69301
-4.83119
-4.96907
-5.10669
-5.24411
-5.38148
-5.51953
-5.65826
)
;
    }
    rightWall
    {
        type            calculated;
        value           nonuniform List<scalar> 
50
(
1264.33
1202.74
1138.64
1074.23
1006.85
935.801
862.415
787.81
669.346
521.49
399.156
307.777
236.58
176.606
130.705
96.6607
68.5337
50.2965
31.0395
20.4645
12.7401
8.41897
5.7726
2.76933
0.390578
-1.41371
-2.15715
-2.17176
-2.2382
-2.26852
-2.7214
-3.57396
-4.32369
-4.45416
-4.18554
-4.12911
-3.88562
-4.08942
-3.95123
-4.18528
-4.47322
-4.79703
-4.82087
-4.79166
-5.17478
-4.99417
-5.0711
-5.27188
-6.39736
-9.35222
)
;
    }
    lowerWall
    {
        type            calculated;
        value           nonuniform List<scalar> 
62
(
565.991
564.606
568.763
577.279
588.838
602.554
618.069
635.028
653.342
672.66
692.696
713.201
733.926
754.611
775.029
794.934
814.02
832.124
848.797
861.333
870.152
878.109
887.908
858.521
796.609
735.785
676.154
617.815
560.048
501.259
448.587
534.496
563.346
582.449
602.631
1158.65
1163.99
1204.46
1110.9
919.772
774.161
737.846
749.033
1163.76
1046.48
774.703
594.073
618.34
696.226
688.37
605.644
522.189
477.044
483.908
552.459
702.41
932.637
1173.08
1329.88
1375.92
1337.49
1291.83
)
;
    }
    atmosphere
    {
        type            calculated;
        value           nonuniform List<scalar> 
46
(
-5.72904
-5.7294
-5.72972
-5.72989
-5.73
-5.73009
-5.73017
-5.73023
-5.73029
-5.73034
-5.73039
-5.73044
-5.73048
-5.73053
-5.73058
-5.73064
-5.73069
-5.73075
-5.7308
-5.73083
-5.73083
-5.73077
-5.73064
-5.73049
-5.73038
-5.73027
-5.73016
-5.72994
-5.72955
-5.72919
-5.72904
-5.72904
-5.72904
-5.72904
-5.72904
-5.72904
-5.72904
-5.72904
-5.72904
-5.72904
-5.72904
-5.72905
-5.72932
-5.80793
-6.1081
-12.667
)
;
    }
    defaultFaces
    {
        type            empty;
    }
}


// ************************************************************************* //
