/*--------------------------------*- C++ -*----------------------------------*\
| =========                 |                                                 |
| \\      /  F ield         | OpenFOAM: The Open Source CFD Toolbox           |
|  \\    /   O peration     | Version:  v2012                                 |
|   \\  /    A nd           | Website:  www.openfoam.com                      |
|    \\/     M anipulation  |                                                 |
\*---------------------------------------------------------------------------*/
FoamFile
{
    version     2.0;
    format      ascii;
    class       volScalarField;
    location    "0.7";
    object      p_rgh;
}
// * * * * * * * * * * * * * * * * * * * * * * * * * * * * * * * * * * * * * //

dimensions      [1 -1 -2 0 0 0 0];


internalField   nonuniform List<scalar> 
2268
(
565.991
564.606
568.763
577.279
588.838
602.554
618.069
635.028
653.342
672.66
692.696
713.201
733.926
754.611
775.029
794.934
814.02
832.124
848.797
861.333
870.152
878.109
887.908
565.725
563.77
567.777
576.305
588.075
601.966
617.663
634.913
653.361
672.741
692.793
713.29
733.982
754.659
775.1
795.121
814.538
833.038
850.224
863.599
869.758
874.047
884.776
563.571
562.116
566.815
575.568
587.381
601.396
617.296
634.722
653.337
672.834
692.951
713.478
734.184
754.861
775.321
795.412
814.959
833.633
850.94
865.847
873.964
872.242
882.737
560.366
559.771
565.432
574.523
586.486
600.663
616.705
634.327
653.147
672.814
693.055
713.677
734.454
755.186
775.703
795.867
815.484
834.237
851.541
866.354
876.312
877.69
882.054
556.861
557.01
563.626
573.102
585.255
599.56
615.794
633.647
652.72
672.614
693.041
713.825
734.737
755.581
776.209
796.49
816.208
835.051
852.46
867.443
878.051
880.746
882.634
553.229
553.93
561.386
571.264
583.623
598.065
614.513
632.647
652.036
672.215
692.887
713.896
735.004
756.016
776.811
797.273
817.148
836.147
853.827
869.302
880.805
884.446
883.65
549.083
550.677
558.309
568.781
581.365
595.963
612.698
631.233
651.068
671.63
692.608
713.9
735.253
756.476
777.49
798.199
818.288
837.518
855.644
872.006
885.293
891.278
883.679
544.166
546.488
553.851
564.656
577.437
592.296
609.586
628.886
649.552
670.785
692.198
713.863
735.507
756.958
778.212
799.208
819.551
839.076
857.816
875.539
891.962
903.037
889.856
1163.76
1046.48
774.703
594.073
618.34
696.226
688.37
605.644
522.189
477.044
483.908
552.459
702.41
932.637
1173.08
1329.88
1375.92
1337.49
1291.83
1217.3
980.158
616.049
454.316
564.646
704.583
706.107
609.905
514.013
461.472
464.251
522.891
656.296
871.319
1107.61
1271.08
1332.21
1318.51
1289.8
1318.78
776.314
373.74
333.064
486.725
710.465
733.53
605.979
495.052
439.15
438.953
488.282
604.913
806.608
1042.34
1213.56
1288.15
1296.68
1276.79
1264.06
600.075
300.513
316.629
465.563
630.951
606.073
475.636
395.973
374.773
402.098
448.932
548.609
745.278
990.529
1170.6
1268.32
1279.44
1256.71
1113.7
466.418
291.822
327.569
554.903
694.477
589.213
433.969
260.571
179.226
239.82
362.797
488.844
685.132
948.289
1135.13
1240.65
1281.6
1241.47
1004.27
431.576
332.431
486.321
629.171
709.779
681.487
393.837
227.872
179.576
166.602
164.003
329.115
627.565
913.497
1105.69
1211.9
1259.64
1222.56
980.767
503.72
470.074
572.376
585.491
591.725
596.746
418.04
206.683
172.649
164.376
159.695
173.802
471.541
886.971
1081.17
1182.94
1235.49
1201.34
877.467
623.755
646.504
598.054
536.488
430.782
464.287
436.695
202.218
162.282
159.271
156.921
162.476
343.922
867.573
1058.7
1154.35
1211.93
1179.17
311.3
320.663
342.092
381.465
425.745
474.482
529.427
584.474
633.393
668.257
690.805
713.491
735.832
757.725
779.388
800.868
821.592
841.531
861.266
881.385
902.935
924.756
945.474
0.98987
1.84828
4.6505
11.4589
28.3148
57.2961
100.624
162.725
246.93
356.703
481.767
595.903
686.936
749.082
781.418
804.154
825.32
844.618
864.217
885.102
907.058
930.244
960.179
0.731191
0.723905
0.732574
0.750831
0.764769
0.763465
0.753717
0.747657
0.778079
4.67671
28.1051
75.117
152.437
262.506
420.848
608.642
745.853
800.216
837.325
880.675
908.054
931.649
959.679
0.69639
0.698254
0.704797
0.700523
0.688935
0.679535
0.673715
0.67419
0.687232
0.703503
0.688207
0.630153
0.582554
0.560326
0.780262
5.04626
35.5925
131.515
264.713
402.714
506.647
607.303
699.81
0.686494
0.679505
0.68389
0.684096
0.680382
0.676303
0.672741
0.670779
0.670052
0.659477
0.635649
0.619602
0.619467
0.634712
0.663306
0.695665
0.691845
0.610762
0.603261
0.694174
0.844613
1.12555
40.1918
0.655677
0.655974
0.658327
0.659981
0.659808
0.658609
0.657043
0.655745
0.654467
0.649116
0.637765
0.629211
0.627968
0.63452
0.649127
0.670942
0.695642
0.724324
0.768219
0.825408
0.891758
0.964303
1.0569
0.632489
0.63283
0.634129
0.635287
0.635638
0.635477
0.635236
0.63526
0.635523
0.634733
0.631501
0.628578
0.629427
0.636304
0.650035
0.669401
0.690809
0.716553
0.757594
0.817765
0.896127
0.986315
1.0764
0.608515
0.609401
0.610551
0.611586
0.612274
0.612838
0.61357
0.61467
0.616121
0.617461
0.618252
0.619797
0.624131
0.632929
0.646901
0.665532
0.687648
0.715484
0.755422
0.811346
0.88348
0.968687
1.06868
0.584876
0.585915
0.587075
0.588169
0.589188
0.590333
0.591818
0.593793
0.596273
0.5991
0.60223
0.606415
0.612809
0.622479
0.636116
0.653961
0.67622
0.704473
0.741861
0.790165
0.849169
0.915306
0.985114
0.561634
0.562584
0.563705
0.564853
0.566102
0.567642
0.569656
0.572277
0.575546
0.579417
0.583915
0.589444
0.596671
0.606328
0.619065
0.635411
0.655936
0.681663
0.71396
0.753315
0.798843
0.846486
0.891293
0.538719
0.539486
0.540509
0.541668
0.543042
0.54481
0.547142
0.550157
0.553901
0.558348
0.563493
0.569513
0.576781
0.585802
0.597133
0.611312
0.628863
0.650354
0.676247
0.706353
0.739468
0.771823
0.799235
0.51611
0.516665
0.517537
0.518645
0.520045
0.521894
0.52435
0.527523
0.531445
0.536071
0.541335
0.547259
0.554012
0.561923
0.57143
0.582991
0.596975
0.613589
0.632754
0.653865
0.675578
0.69458
0.707178
0.493791
0.494143
0.494826
0.495812
0.497136
0.498933
0.501345
0.504469
0.508322
0.512823
0.51784
0.52327
0.529129
0.535596
0.542999
0.551692
0.561893
0.573534
0.586173
0.598923
0.610361
0.617658
0.617414
0.471763
0.471919
0.4724
0.473205
0.474358
0.475983
0.478207
0.481115
0.484703
0.488858
0.493383
0.498071
0.502805
0.50764
0.512796
0.518542
0.524981
0.531859
0.538491
0.543787
0.546286
0.543626
0.532784
0.450042
0.449981
0.450275
0.450856
0.451763
0.453113
0.455029
0.457586
0.460761
0.464415
0.468296
0.472107
0.475615
0.478753
0.481645
0.484493
0.487337
0.489828
0.491135
0.490033
0.485039
0.474179
0.454871
0.428557
0.428385
0.428471
0.428795
0.4294
0.430397
0.431907
0.434002
0.436654
0.439703
0.442856
0.44574
0.448021
0.44951
0.45023
0.450325
0.449823
0.448362
0.445068
0.43864
0.427582
0.410206
0.384334
0.407344
0.407087
0.406985
0.407043
0.407313
0.407905
0.408937
0.410486
0.412527
0.414899
0.417284
0.419258
0.420388
0.420369
0.419112
0.416697
0.413158
0.408193
0.40098
0.390227
0.37444
0.352114
0.321355
0.386416
0.386093
0.385825
0.385621
0.385543
0.385701
0.386212
0.387156
0.388524
0.390169
0.391775
0.392886
0.392995
0.391684
0.388739
0.384152
0.377957
0.369947
0.359437
0.345242
0.325925
0.300092
0.266014
0.365795
0.365419
0.365006
0.364552
0.364134
0.363852
0.363823
0.364132
0.364789
0.365673
0.366493
0.366796
0.366033
0.363685
0.359407
0.353076
0.344692
0.334133
0.3209
0.304006
0.282159
0.254077
0.218148
0.345514
0.34509
0.344553
0.343872
0.343132
0.342426
0.341862
0.341531
0.34146
0.341565
0.341596
0.341134
0.339624
0.336487
0.331254
0.323663
0.313631
0.301077
0.285675
0.266693
0.243075
0.213708
0.177117
0.325609
0.325136
0.324498
0.323619
0.322587
0.321486
0.320416
0.319464
0.318674
0.317996
0.317236
0.316031
0.31386
0.310126
0.304272
0.295902
0.284806
0.27087
0.253884
0.233358
0.208519
0.1785
0.142016
0.306108
0.305598
0.304881
0.303835
0.302547
0.301094
0.299562
0.298032
0.296556
0.295114
0.293568
0.291626
0.288833
0.284617
0.278388
0.269641
0.258033
0.243356
0.225426
0.203921
0.178337
0.148083
0.112105
0.287004
0.286553
0.285743
0.284552
0.28305
0.281297
0.279362
0.277316
0.275212
0.27305
0.270743
0.26807
0.26466
0.260007
0.253535
0.244687
0.233009
0.218177
0.199956
0.178093
0.15228
0.122175
0.0869533
0.26841
0.267964
0.267096
0.265795
0.264124
0.262128
0.25986
0.257377
0.254724
0.251916
0.2489
0.245521
0.241493
0.236399
0.229722
0.220907
0.209437
0.19489
0.176946
0.155345
0.129869
0.100359
0.0661837
0.250326
0.249873
0.248964
0.247584
0.245787
0.243607
0.241081
0.238248
0.235145
0.231788
0.228148
0.224121
0.219497
0.213951
0.20705
0.198288
0.187143
0.173133
0.155863
0.135021
0.110414
0.0819639
0.0491917
0.232758
0.2323
0.231362
0.229931
0.22805
0.225742
0.223031
0.219941
0.216495
0.212705
0.208555
0.203972
0.198811
0.192829
0.185682
0.17694
0.166118
0.152729
0.13633
0.116559
0.0931988
0.0662001
0.0351639
0.215713
0.21525
0.214297
0.212838
0.210911
0.208529
0.205702
0.202443
0.198763
0.194665
0.190135
0.185124
0.179527
0.173169
0.165787
0.157035
0.146492
0.133701
0.118214
0.0996404
0.0777276
0.0524098
0.0233343
0.199189
0.198724
0.197768
0.196305
0.194365
0.191955
0.189075
0.185729
0.181917
0.177634
0.172863
0.167565
0.161667
0.155037
0.147482
0.13873
0.128434
0.11619
0.101576
0.0841979
0.0637833
0.0402334
0.0132083
0.183181
0.18272
0.181772
0.180321
0.178397
0.175998
0.173121
0.169761
0.165909
0.161555
0.156676
0.15124
0.145187
0.138422
0.130798
0.122108
0.112072
0.100347
0.0865551
0.0703233
0.0513739
0.0295808
0.00460172
0.16768
0.167225
0.166295
0.164872
0.162987
0.160633
0.157806
0.154493
0.150683
0.146358
0.141493
0.136056
0.129997
0.123242
0.115681
0.107154
0.097439
0.0862508
0.0732617
0.058133
0.040598
0.020514
-0.00246285
0.152669
0.152226
0.15132
0.149937
0.148109
0.145831
0.143092
0.139881
0.13618
0.131968
0.12722
0.121903
0.115974
0.109372
0.102012
0.0937694
0.0844687
0.0738753
0.0617101
0.0476745
0.0315227
0.0131081
-0.00790695
0.138128
0.137698
0.136824
0.135486
0.133733
0.131555
0.12894
0.125874
0.122338
0.11831
0.113763
0.108667
0.102983
0.0966596
0.089629
0.0817943
0.0730145
0.0630976
0.0518084
0.0388887
0.0241186
0.00735698
-0.0117055
0.124031
0.123609
0.122774
0.121478
0.119822
0.117767
0.115305
0.112421
0.109096
0.105307
0.10103
0.0962368
0.0908909
0.0849499
0.0783592
0.0710419
0.0628853
0.0537316
0.0433837
0.031621
0.0182467
0.00312327
-0.0139159
0.11035
0.109912
0.109104
0.107898
0.10634
0.104425
0.10214
0.0994692
0.0963923
0.0928885
0.0889357
0.0845075
0.0795727
0.0740955
0.0680321
0.061322
0.0538745
0.0455607
0.0362169
0.0256558
0.013685
0.000101782
-0.0146233
0.0970677
0.096555
0.0957909
0.0946722
0.093236
0.0914814
0.0893961
0.0869646
0.084167
0.0809852
0.0773989
0.0733847
0.0689158
0.0639628
0.0584915
0.0524552
0.0457824
0.0383684
0.0300797
0.0207641
0.0102828
-0.00146635
-0.0146081
0.0840862
0.0835368
0.0827871
0.0817583
0.0804603
0.0788858
0.0770228
0.0748545
0.0723639
0.0695345
0.0663479
0.0627838
0.05882
0.054434
0.0496003
0.0442842
0.0384296
0.0319532
0.0247481
0.0166932
0.00768423
-0.00235451
-0.0136434
0.0714032
0.0707671
0.0700248
0.0690997
0.0679606
0.0665888
0.0649704
0.0630887
0.0609285
0.058475
0.0557125
0.0526243
0.0491938
0.0454047
0.0412394
0.0366725
0.0316614
0.0261408
0.0200274
0.0132272
0.00566266
-0.00272284
-0.0121291
0.0589762
0.0581881
0.0574347
0.056633
0.05568
0.0545373
0.0531861
0.0516108
0.0497987
0.0477383
0.0454177
0.0428252
0.0399489
0.0367779
0.0333003
0.0294988
0.0253423
0.0207815
0.0157528
0.0101856
0.00402507
-0.00276605
-0.0103475
0.0467535
0.0457309
0.0449433
0.0443092
0.0435865
0.0427019
0.0416373
0.0403825
0.0389303
0.0372744
0.0354086
0.0333254
0.0310169
0.0284759
0.0256955
0.0226655
0.019365
0.0157584
0.0117981
0.00743272
0.00262644
-0.0026408
-0.00848505
0.0345737
0.0332547
0.0324548
0.032181
0.0317933
0.0311968
0.0304242
0.0294895
0.0283958
0.0271444
0.0257341
0.0241608
0.0224194
0.0205058
0.0184179
0.0161512
0.0136932
0.0110195
0.00809696
0.00489146
0.00138306
-0.00243647
-0.00664017
0.0217212
0.0203559
0.0197038
0.0202727
0.0203612
0.0200493
0.0195441
0.0189093
0.0181609
0.0173056
0.016345
0.0152768
0.0140978
0.0128064
0.0114028
0.00988644
0.00825177
0.00648598
0.0045713
0.00249092
0.000237421
-0.00219098
-0.00483357
0.00817786
0.00611213
0.00562029
0.00691131
0.00723183
0.00713777
0.00691091
0.00661854
0.00628004
0.00590252
0.00548696
0.00503152
0.00453407
0.00399343
0.00340967
0.0027833
0.00211386
0.00139934
0.000637754
-0.000170575
-0.00102196
-0.00191081
-0.00283929
1005.24
1034.08
1053.15
1040.39
999.56
1022.7
1046.19
1087.06
989.009
1008.38
1028.79
1056.02
774.559
814.034
841.625
894.119
93.6047
125.714
146.832
194.829
1.30049
1.69471
2.64909
5.96897
1.16831
1.25771
1.42016
1.89031
1.17801
1.25177
1.31185
1.35837
1.04261
1.07668
1.10148
1.10814
0.922925
0.942937
0.961405
0.980046
0.816837
0.830119
0.844102
0.854943
0.711451
0.715442
0.721381
0.722188
0.609786
0.603644
0.598511
0.589632
0.515412
0.50046
0.484094
0.465552
0.430015
0.408515
0.383689
0.357
0.35404
0.328209
0.298138
0.2663
0.287111
0.258502
0.225654
0.191439
0.229098
0.198732
0.164512
0.129632
0.17996
0.148764
0.113967
0.0791301
0.138986
0.107929
0.0733035
0.0388786
0.104819
0.0746651
0.0409532
0.00739327
0.0761439
0.0472185
0.0149108
-0.0172988
0.0522226
0.0245002
-0.00627762
-0.0368523
0.0327104
0.00608718
-0.0232493
-0.0521623
0.0171544
-0.00835718
-0.0363302
-0.0636694
0.00481267
-0.0194461
-0.0460077
-0.0718168
-0.00513269
-0.027958
-0.052964
-0.0771932
-0.013284
-0.0345473
-0.0578507
-0.0804032
-0.0199142
-0.0395753
-0.061099
-0.0819005
-0.0250474
-0.0431336
-0.0628897
-0.0819324
-0.028613
-0.0451837
-0.0632424
-0.0805863
-0.0305712
-0.0456868
-0.0621366
-0.0778806
-0.0309701
-0.0446764
-0.0595944
-0.0738395
-0.0299417
-0.0422781
-0.0557148
-0.0685389
-0.0279241
-0.0387878
-0.0507157
-0.0621766
-0.0250457
-0.0344485
-0.0448663
-0.0548972
-0.0216413
-0.0295607
-0.0384105
-0.0469703
-0.0180174
-0.0244588
-0.0317178
-0.0387798
-0.0143882
-0.0193814
-0.0250486
-0.0305947
-0.0108562
-0.0144428
-0.0185424
-0.0225823
-0.00744817
-0.00967503
-0.0122336
-0.014771
-0.00374233
-0.00451138
-0.00540218
-0.00630195
1005.24
986.956
804.091
610.206
257.898
124.964
151.728
214.591
192.723
151.412
149.899
151.418
156.848
280.209
805.412
1029.98
1117
1175.89
1177.39
1196.42
1060.9
828.241
238.246
121.973
123.112
121.649
136.841
148.783
135.663
138.942
142.481
146.966
292.365
808.59
985.496
1081.33
1147.16
1167.66
1110.48
1048.58
657.218
134.497
122.425
122.654
121.697
115.887
112.326
123.909
131.859
136.33
139.096
594.392
837.237
532.925
822.431
1125.17
1132.11
1032.96
1078.37
616.36
122.059
122.483
122.036
120.988
119.234
117.804
121.7
127.236
130.882
255.392
748.903
741.366
338.086
458.74
1127.76
1127.9
547.364
1065.48
724.614
122.813
122.543
122.211
121.78
120.988
120.788
122.731
125.167
121.207
712.746
846.56
390.024
329.471
359.999
947.809
1140.86
93.7567
656.885
843.429
498.582
122.4
122.512
122.109
121.612
121.495
122.182
123.898
167.952
881.369
909.197
305.527
326.1
340.188
750.057
1191.82
4.56751
302.188
887.221
803.444
141.916
122.49
122.216
121.705
121.404
121.46
120.07
684.509
966.701
585.386
302.972
316.513
519.75
783.229
1246.56
1.57229
36.6799
621.693
862.699
552.714
121.859
122.188
121.53
121.261
121.543
119.627
1103.2
1046.51
254.787
270.197
497.614
557.868
503.249
614.821
1.11535
1.57826
220.107
878.698
840.361
285.624
121.565
121.364
121.379
121.411
660.758
1207.55
924.261
219.728
215.992
340.311
237.798
126.528
188.722
1.02203
0.974959
20.7065
529.116
888.049
891.171
152.047
120.662
119.969
153.833
1287.19
1289.97
635.445
142.489
93.8897
76.9644
48.3135
89.2652
169.462
0.877548
0.893133
1.03663
81.2623
706.394
919.841
663.703
119.689
156.119
1139.8
1397.78
1381.97
551.83
80.5248
8.50027
11.927
27.7516
271.21
303.702
0.716603
0.701954
0.680011
0.882016
70.5747
587.281
1053.63
1251.32
1340.16
1476.87
1488.93
829.964
297.208
52.0883
3.87925
5.97578
36.8195
292.197
312.247
0.564816
0.506394
0.442451
0.400172
0.370277
33.621
387.678
747.729
790.231
741.552
519.011
117.865
16.1462
9.43712
1.60304
2.94713
32.4606
88.193
323.641
0.429011
0.351031
0.243025
0.123748
0.0184625
-0.167848
-0.484614
12.5772
11.809
1.58756
-1.16873
-0.775195
-0.843665
-0.603094
-0.104514
2.10367
137.981
106.883
200.395
0.310876
0.226874
0.106524
-0.0564945
-0.251669
-0.48216
-0.693458
-1.00238
-1.18363
-1.19019
-1.18935
-1.24094
-1.22994
-1.1941
-1.11954
-1.47501
166.898
173.707
158.428
0.213635
0.126578
0.00981119
-0.147018
-0.348274
-0.580352
-0.775689
-0.88107
-1.02286
-1.07779
-1.06021
-1.12053
-1.27412
-1.4238
-1.51478
-2.1136
143.6
184.919
162.779
0.13622
0.0493799
-0.060787
-0.198006
-0.364119
-0.550918
-0.726516
-0.733246
-0.893274
-0.96705
-0.984878
-1.07962
-1.2735
-1.46752
-1.55228
-1.99945
7.02025
187.615
171.3
0.0746328
-0.00861857
-0.11048
-0.230948
-0.366844
-0.510156
-0.645082
-0.669263
-0.795147
-0.882439
-0.948469
-1.06685
-1.23494
-1.37322
-1.41841
-1.55288
-1.51364
138.021
296.055
0.0255566
-0.0525775
-0.145225
-0.251374
-0.366688
-0.483685
-0.589944
-0.679735
-0.749171
-0.829631
-0.915152
-1.03029
-1.15628
-1.23561
-1.23933
-1.14586
-1.22366
204.683
311.706
-0.0130193
-0.0858265
-0.169632
-0.263193
-0.362588
-0.46235
-0.552557
-0.640818
-0.715805
-0.790485
-0.877731
-0.981869
-1.08523
-1.14152
-1.10695
-0.853932
11.1524
323.168
325.862
-0.0426616
-0.11039
-0.186222
-0.268946
-0.355304
-0.441685
-0.522781
-0.602356
-0.67625
-0.752833
-0.839786
-0.940188
-1.04254
-1.11514
-1.12125
-0.944214
113.074
337.043
339.898
-0.0650958
-0.127953
-0.196631
-0.270044
-0.345643
-0.42117
-0.494922
-0.566477
-0.63767
-0.713523
-0.799734
-0.899927
-1.0102
-1.11368
-1.19424
-1.40017
182.598
351.704
354.158
-0.0819703
-0.140045
-0.202187
-0.267465
-0.334004
-0.400532
-0.466363
-0.53177
-0.598538
-0.670378
-0.751823
-0.846903
-0.956564
-1.07562
-1.19888
-1.51882
66.6721
367.617
367.65
-0.0944433
-0.147829
-0.203908
-0.261924
-0.32059
-0.379328
-0.437984
-0.496929
-0.557372
-0.621664
-0.692881
-0.774088
-0.866585
-0.968718
-1.07298
-1.2723
-1.30496
315.22
381.162
-0.103199
-0.152078
-0.202521
-0.253962
-0.305581
-0.357268
-0.409106
-0.4612
-0.513883
-0.568072
-0.625155
-0.686414
-0.75143
-0.816649
-0.874931
-0.946646
-1.02314
55.1155
394.277
-0.108736
-0.153374
-0.19863
-0.244096
-0.289289
-0.334402
-0.379604
-0.424661
-0.469
-0.512251
-0.554351
-0.595054
-0.633029
-0.66561
-0.689978
-0.720214
-0.767548
0.764466
403.522
-0.111569
-0.152254
-0.192799
-0.232881
-0.272215
-0.311136
-0.349864
-0.387986
-0.424275
-0.45739
-0.486286
-0.509708
-0.525719
-0.531699
-0.525675
-0.514389
-0.497585
-0.538078
413.766
-0.112219
-0.14922
-0.185526
-0.220821
-0.254904
-0.288113
-0.320784
-0.352307
-0.381306
-0.406111
-0.425103
-0.436367
-0.437461
-0.425217
-0.394862
-0.341284
-0.255058
-0.251653
408.677
-0.111123
-0.144664
-0.177151
-0.208232
-0.237704
-0.265916
-0.29311
-0.318721
-0.341486
-0.360005
-0.372781
-0.377697
-0.372163
-0.353045
-0.312916
-0.23405
-0.0884107
5.18397
142.916
-0.108568
-0.138838
-0.167844
-0.195191
-0.220667
-0.24462
-0.267193
-0.287888
-0.305635
-0.319681
-0.329297
-0.332906
-0.328511
-0.314378
-0.281726
-0.211729
-0.107145
54.1971
47.6566
-0.104712
-0.13188
-0.157663
-0.181631
-0.203594
-0.223913
-0.242353
-0.259311
-0.273646
-0.284762
-0.293099
-0.298303
-0.29959
-0.296409
-0.283417
-0.242586
-0.241443
90.7664
50.4235
-0.0996301
-0.123871
-0.146649
-0.167497
-0.186268
-0.203381
-0.216253
-0.23226
-0.244476
-0.253705
-0.261605
-0.268934
-0.27613
-0.282764
-0.289742
-0.282109
-0.376701
93.4803
173.86
-0.0933718
-0.114877
-0.134879
-0.152853
-0.168662
-0.182823
-0.192879
-0.207245
-0.216683
-0.224535
-0.232033
-0.240497
-0.250813
-0.263363
-0.283408
-0.30339
-0.402473
25.4452
178.614
-0.086
-0.104957
-0.122437
-0.137843
-0.150978
-0.162416
-0.172812
-0.166629
-0.146397
-0.146011
-0.166618
-0.205189
-0.219829
-0.232593
-0.25143
-0.273417
-0.319667
-0.325621
183.418
-0.0776389
-0.0941655
-0.109392
-0.122592
-0.13345
-0.142487
-0.150527
-0.112553
-0.0750214
-0.0785794
-0.0829289
-0.101038
-0.17895
-0.189646
-0.19863
-0.18724
-0.195868
-0.2285
187.815
-0.0684891
-0.0825634
-0.0957931
-0.10713
-0.11616
-0.123236
-0.129234
-0.125225
-0.0539294
-0.0501041
-0.0526663
-0.0757415
-0.145923
-0.145756
0.0826052
0.852871
0.334583
-0.115562
169.396
-0.058529
-0.0705648
-0.0817708
-0.0914611
-0.099061
-0.104674
-0.109065
-0.112953
-0.104083
-0.0541774
-0.0624476
-0.116842
-0.067559
0.46477
0.926153
0.930593
0.727066
-0.0400294
24.4237
-0.0483058
-0.0581804
-0.0674465
-0.0756233
-0.0820569
-0.086609
-0.0898466
-0.0924554
-0.0945624
-0.0947174
-0.0954929
-0.0948469
-0.000276506
0.975463
0.982014
0.993885
0.539259
0.081364
20.2151
-0.0380724
-0.0457297
-0.0530476
-0.0597611
-0.0651409
-0.0688465
-0.0713133
-0.07306
-0.074148
-0.074235
-0.0731512
-0.0713797
-0.0367155
0.172582
0.54023
0.364264
-0.0105096
0.436658
78.7658
-0.0280239
-0.0334633
-0.0388101
-0.0442051
-0.0488006
-0.0517591
-0.0537494
-0.0549781
-0.0553566
-0.0545152
-0.0521792
-0.0484209
-0.04406
-0.0378805
-0.0277631
-0.0206726
-0.0154167
7.05443
80.7223
-0.0181767
-0.0214873
-0.0250539
-0.0299289
-0.0343933
-0.0368165
-0.0387862
-0.0400819
-0.0402467
-0.0387762
-0.0351922
-0.0291877
-0.0204328
-0.00698598
0.0122128
0.00907066
-0.0367435
-0.0382828
65.5794
-0.00754225
-0.00880319
-0.0110709
-0.0170161
-0.0196739
-0.0211694
-0.0231748
-0.0247904
-0.0252997
-0.0240821
-0.0204972
-0.0139349
-0.00336263
0.0157706
0.0521156
0.0451487
-0.163509
-0.792773
3.17641
)
;

boundaryField
{
    leftWall
    {
        type            fixedFluxPressure;
        gradient        uniform 0;
        value           nonuniform List<scalar> 
50
(
565.991
565.725
563.571
560.366
556.861
553.229
549.083
544.166
311.3
0.98987
0.731191
0.69639
0.686494
0.655677
0.632489
0.608515
0.584876
0.561634
0.538719
0.51611
0.493791
0.471763
0.450042
0.428557
0.407344
0.386416
0.365795
0.345514
0.325609
0.306108
0.287004
0.26841
0.250326
0.232758
0.215713
0.199189
0.183181
0.16768
0.152669
0.138128
0.124031
0.11035
0.0970677
0.0840862
0.0714032
0.0589762
0.0467535
0.0345737
0.0217212
0.00817786
)
;
    }
    rightWall
    {
        type            fixedFluxPressure;
        gradient        uniform 0;
        value           nonuniform List<scalar> 
50
(
1291.83
1289.8
1276.79
1256.71
1241.47
1222.56
1201.34
1179.17
1177.39
1167.66
1132.11
1127.9
1140.86
1191.82
1246.56
614.821
188.722
169.462
303.702
312.247
323.641
200.395
158.428
162.779
171.3
296.055
311.706
325.862
339.898
354.158
367.65
381.162
394.277
403.522
413.766
408.677
142.916
47.6566
50.4235
173.86
178.614
183.418
187.815
169.396
24.4237
20.2151
78.7658
80.7223
65.5794
3.17641
)
;
    }
    lowerWall
    {
        type            fixedFluxPressure;
        gradient        uniform 0;
        value           nonuniform List<scalar> 
62
(
565.991
564.606
568.763
577.279
588.838
602.554
618.069
635.028
653.342
672.66
692.696
713.201
733.926
754.611
775.029
794.934
814.02
832.124
848.797
861.333
870.152
878.109
887.908
887.908
884.776
882.737
882.054
882.634
883.65
883.679
889.856
1005.24
1034.08
1053.15
1040.39
1163.76
1217.3
1318.78
1264.06
1113.7
1004.27
980.767
877.467
1163.76
1046.48
774.703
594.073
618.34
696.226
688.37
605.644
522.189
477.044
483.908
552.459
702.41
932.637
1173.08
1329.88
1375.92
1337.49
1291.83
)
;
    }
    atmosphere
    {
        type            totalPressure;
        rho             rho;
        psi             none;
        gamma           1;
        p0              uniform 0;
        value           nonuniform List<scalar> 
46
(
0
-0.00035579
-0.000683098
-0.0008454
-0.000960074
-0.00105099
-0.00112721
-0.00119296
-0.00125083
-0.00130285
-0.0013509
-0.00139687
-0.00144266
-0.00149012
-0.00154073
-0.00159521
-0.00165276
-0.00171009
-0.00176034
-0.00179217
-0.0017893
-0.0017316
-0.00159998
-0.00144753
-0.00134157
-0.00123073
-0.00111509
-0.000904934
-0.00050931
-0.000154032
-2.51272e-08
0
0
0
0
0
0
0
0
0
0
0
-0.000279913
-0.0788924
-0.379064
0
)
;
    }
    defaultFaces
    {
        type            empty;
    }
}


// ************************************************************************* //
