/*--------------------------------*- C++ -*----------------------------------*\
| =========                 |                                                 |
| \\      /  F ield         | OpenFOAM: The Open Source CFD Toolbox           |
|  \\    /   O peration     | Version:  v2012                                 |
|   \\  /    A nd           | Website:  www.openfoam.com                      |
|    \\/     M anipulation  |                                                 |
\*---------------------------------------------------------------------------*/
FoamFile
{
    version     2.0;
    format      ascii;
    class       surfaceScalarField;
    location    "0.35";
    object      alphaPhi0.water;
}
// * * * * * * * * * * * * * * * * * * * * * * * * * * * * * * * * * * * * * //

dimensions      [0 3 -1 0 0 0 0];
oriented        oriented;


internalField   nonuniform List<scalar> 
4432
(
-5.08525e-06
5.08525e-06
-4.72913e-06
-3.56119e-07
-9.23691e-07
-3.80544e-06
3.93227e-06
-4.85596e-06
9.05151e-06
-5.11923e-06
1.40144e-05
-4.96288e-06
1.86979e-05
-4.68353e-06
2.30991e-05
-4.40117e-06
2.72429e-05
-4.14382e-06
3.11463e-05
-3.90335e-06
3.48e-05
-3.65371e-06
3.81568e-05
-3.35682e-06
4.11197e-05
-2.96287e-06
4.35143e-05
-2.39467e-06
4.50476e-05
-1.53326e-06
4.51151e-05
-6.74815e-08
4.26203e-05
2.49479e-06
3.66938e-05
5.92646e-06
2.66768e-05
1.0017e-05
1.29356e-05
1.37412e-05
-2.41988e-06
1.54918e-05
-1.16503e-05
9.15037e-06
-1.17275e-05
-2.62465e-06
7.7099e-06
-7.81588e-07
-2.19917e-06
2.91619e-06
-7.50322e-06
7.58277e-06
-9.52254e-06
1.24566e-05
-9.99309e-06
1.72455e-05
-9.75177e-06
2.1832e-05
-9.27004e-06
2.61886e-05
-8.75771e-06
3.03189e-05
-8.2741e-06
3.4223e-05
-7.80749e-06
3.78797e-05
-7.31036e-06
4.12347e-05
-6.71182e-06
4.41896e-05
-5.91781e-06
4.65901e-05
-4.79519e-06
4.82104e-05
-3.15357e-06
4.88121e-05
-6.69121e-07
4.81111e-05
3.19581e-06
4.5215e-05
8.82254e-06
3.88945e-05
1.63375e-05
2.80521e-05
2.45836e-05
1.33734e-05
3.01705e-05
1.07274e-06
2.22323e-05
-1.13603e-05
-4.12307e-07
8.1222e-06
1.87959e-06
-4.49106e-06
5.64093e-06
-1.12646e-05
1.01018e-05
-1.39835e-05
1.47435e-05
-1.46348e-05
1.93264e-05
-1.43346e-05
2.3751e-05
-1.36947e-05
2.79861e-05
-1.29928e-05
3.20241e-05
-1.2312e-05
3.58537e-05
-1.16371e-05
3.94453e-05
-1.0902e-05
4.27407e-05
-1.00072e-05
4.56438e-05
-8.82097e-06
4.80133e-05
-7.1647e-06
4.96497e-05
-4.78996e-06
5.03184e-05
-1.3378e-06
4.97845e-05
3.72977e-06
4.76372e-05
1.09698e-05
4.32512e-05
2.07235e-05
3.57224e-05
3.21124e-05
2.44078e-05
4.14851e-05
1.10302e-05
3.56668e-05
-4.63115e-07
1.21274e-06
6.90946e-06
3.93926e-06
-7.21758e-06
7.79767e-06
-1.5123e-05
1.21486e-05
-1.83344e-05
1.66084e-05
-1.90945e-05
2.10052e-05
-1.87314e-05
2.52693e-05
-1.79587e-05
2.9375e-05
-1.70986e-05
3.33096e-05
-1.62467e-05
3.70544e-05
-1.53819e-05
4.05738e-05
-1.44213e-05
4.38072e-05
-1.32406e-05
4.66623e-05
-1.16761e-05
4.90099e-05
-9.51224e-06
5.06797e-05
-6.45978e-06
5.14726e-05
-2.13072e-06
5.11857e-05
4.01664e-06
4.9573e-05
1.25826e-05
4.62957e-05
2.40008e-05
4.07294e-05
3.76787e-05
3.17743e-05
5.04401e-05
1.82851e-05
4.91531e-05
1.76767e-05
2.17337e-06
4.73609e-06
5.47357e-06
-1.05178e-05
9.52393e-06
-1.91733e-05
1.38407e-05
-2.26513e-05
1.81667e-05
-2.34205e-05
2.24051e-05
-2.29698e-05
2.65224e-05
-2.2076e-05
3.05044e-05
-2.10805e-05
3.43372e-05
-2.00795e-05
3.79976e-05
-1.90423e-05
4.14463e-05
-1.787e-05
4.46221e-05
-1.64165e-05
4.74377e-05
-1.44917e-05
4.97772e-05
-1.18517e-05
5.14984e-05
-8.18095e-06
5.24421e-05
-3.0744e-06
5.24535e-05
4.00526e-06
5.1371e-05
1.36651e-05
4.8976e-05
2.63958e-05
4.47614e-05
4.18933e-05
3.74635e-05
5.77381e-05
2.42282e-05
6.23884e-05
4.17603e-05
2.7342e-06
2.00189e-06
6.60634e-06
-1.43899e-05
1.08938e-05
-2.34608e-05
1.52198e-05
-2.69772e-05
1.94457e-05
-2.76464e-05
2.35498e-05
-2.70739e-05
2.7536e-05
-2.60622e-05
3.14034e-05
-2.49479e-05
3.51395e-05
-2.38156e-05
3.87186e-05
-2.26214e-05
4.20994e-05
-2.12507e-05
4.52218e-05
-1.95389e-05
4.80045e-05
-1.72745e-05
5.03459e-05
-1.41931e-05
5.21302e-05
-9.96527e-06
5.32394e-05
-4.18361e-06
5.35708e-05
3.67384e-06
5.30295e-05
1.42064e-05
5.14739e-05
2.79514e-05
4.8464e-05
4.49031e-05
4.26797e-05
6.35223e-05
2.99968e-05
7.50714e-05
7.16169e-05
3.12213e-06
-1.12024e-06
7.47462e-06
-1.87424e-05
1.19835e-05
-2.79697e-05
1.63274e-05
-3.13211e-05
2.04685e-05
-3.17875e-05
2.44536e-05
-3.10591e-05
2.83207e-05
-2.99293e-05
3.20811e-05
-2.87084e-05
3.57247e-05
-2.74591e-05
3.92243e-05
-2.6121e-05
4.2538e-05
-2.45645e-05
4.56083e-05
-2.26092e-05
4.83607e-05
-2.00269e-05
5.07078e-05
-1.65402e-05
5.25596e-05
-1.1817e-05
5.38387e-05
-5.46278e-06
5.44967e-05
3.01581e-06
5.45077e-05
1.41954e-05
5.38185e-05
2.86406e-05
5.2105e-05
4.66166e-05
4.82027e-05
6.74246e-05
3.68248e-05
8.64493e-05
0.000108307
3.45148e-06
-4.57172e-06
8.18611e-06
-2.3477e-05
1.28675e-05
-3.26511e-05
1.72122e-05
-3.56657e-05
2.12678e-05
-3.5843e-05
2.51398e-05
-3.49311e-05
2.88945e-05
-3.36839e-05
3.25527e-05
-3.23666e-05
3.61055e-05
-3.10119e-05
3.95251e-05
-2.95406e-05
4.27703e-05
-2.78097e-05
4.57866e-05
-2.56255e-05
4.85071e-05
-2.27474e-05
5.0858e-05
-1.88911e-05
5.27736e-05
-1.37326e-05
5.42158e-05
-6.90498e-06
5.51909e-05
2.04073e-06
5.57502e-05
1.36362e-05
5.59605e-05
2.84303e-05
5.5731e-05
4.6846e-05
5.4328e-05
6.88277e-05
4.53816e-05
9.53957e-05
0.000153557
-3.90315e-23
6.96045e-23
-4.34969e-23
1.01122e-22
-3.06966e-22
2.25373e-23
-7.92707e-22
1.3268e-23
-7.47089e-21
-1.37301e-21
-2.96724e-20
-1.19687e-20
-1.54492e-20
-1.29172e-19
-3.2211e-22
-1.67054e-19
1.76054e-21
-3.32762e-20
3.64714e-22
-2.2935e-21
7.12935e-23
-1.61357e-22
6.38543e-24
-2.44694e-23
1.24718e-25
-6.7506e-25
2.2825e-27
2.26042e-27
9.71769e-29
1.66604e-28
2.46453e-30
1.02157e-29
4.58876e-32
3.93985e-31
1.23264e-32
8.22086e-33
1.4086e-34
-5.39442e-22
2.03746e-21
-1.25971e-21
2.63595e-21
-4.621e-21
2.49153e-21
-1.03075e-19
2.73698e-21
-6.96004e-19
-2.16888e-19
-1.0499e-18
-1.31331e-18
-6.42812e-19
-2.36059e-18
-5.37079e-20
-2.65637e-18
9.12553e-20
-1.1546e-18
2.27697e-20
-2.06321e-19
3.93471e-21
-1.75131e-20
4.17968e-22
-1.51262e-21
9.74469e-24
-6.33377e-23
1.34261e-25
3.97201e-25
6.49804e-27
3.61639e-26
1.6111e-28
2.34248e-27
2.72319e-30
9.52477e-29
3.28063e-32
2.23006e-30
2.07616e-32
-2.85506e-20
7.0909e-20
-1.41534e-19
3.09658e-19
-5.32452e-19
4.78636e-19
-5.20012e-18
6.395e-20
-2.51523e-17
-1.21642e-17
-3.30421e-17
-2.71124e-17
-1.84192e-17
-5.24256e-17
-1.78113e-18
-6.30774e-17
2.73972e-18
-3.44725e-17
7.71133e-19
-8.82534e-18
1.21749e-19
-9.24009e-19
1.52108e-20
-5.77988e-20
4.3683e-22
-2.99876e-21
4.52122e-24
1.7085e-23
1.97995e-25
1.74206e-24
6.04243e-27
1.12517e-25
1.27794e-28
4.59644e-27
1.62721e-30
1.11806e-28
1.21922e-30
-4.7518e-19
1.32859e-18
-3.69126e-18
7.82262e-18
-1.62965e-17
1.46624e-17
-9.47043e-17
-1.02084e-17
-6.42194e-16
-4.13832e-18
-6.45056e-16
-2.42619e-16
-3.49209e-16
-7.52176e-16
-2.508e-17
-9.03047e-16
5.48745e-17
-3.52356e-16
1.86502e-17
-1.18464e-16
2.85433e-18
-2.32733e-17
3.91704e-19
-1.67814e-18
1.38878e-20
-9.45195e-20
1.20949e-22
5.24333e-22
5.69837e-24
5.92168e-23
2.00937e-25
3.90174e-24
4.54756e-27
1.62834e-25
6.4177e-29
4.11598e-27
5.02789e-29
-5.24549e-18
1.75405e-17
-6.11986e-17
1.12288e-16
-3.91452e-16
2.17851e-16
-8.56192e-16
9.9816e-17
-1.41597e-14
1.21033e-14
-1.03245e-14
-7.29499e-15
-5.17804e-15
-1.10654e-14
-1.01743e-16
-1.26643e-14
1.11738e-15
-5.69672e-15
2.89624e-16
-5.76655e-16
5.34901e-17
-9.79768e-17
7.89672e-18
-3.40475e-17
3.52419e-19
-2.22198e-18
2.92099e-21
1.35078e-20
1.56166e-22
1.67553e-21
5.86157e-24
1.14588e-22
1.4042e-25
4.93141e-24
2.11628e-27
1.30112e-25
1.72715e-27
-3.19555e-17
1.3214e-16
-1.02283e-16
4.17136e-16
-4.05998e-15
2.14203e-15
-1.42394e-14
1.6155e-14
-2.13014e-13
2.09566e-13
-1.39112e-13
-1.22007e-13
-6.12199e-14
-1.66414e-13
7.71393e-15
-1.77219e-13
1.85541e-14
-7.19654e-14
5.83173e-15
-2.74363e-15
9.99193e-16
1.16317e-15
1.32121e-16
-1.55662e-16
7.54125e-18
-4.00186e-17
7.08886e-20
3.19414e-19
4.02737e-21
4.29943e-20
1.60004e-22
3.07637e-21
4.06375e-24
1.38228e-22
6.3958e-26
3.82807e-24
5.39817e-26
-6.05301e-17
3.0771e-16
-9.25179e-15
4.37437e-15
-1.20438e-13
1.19115e-13
-4.08969e-13
1.45805e-13
-2.37763e-12
2.38183e-12
-1.30594e-12
-1.82594e-12
-4.37963e-13
-2.00763e-12
2.38028e-13
-2.00006e-12
2.69758e-13
-7.90177e-13
8.54593e-14
-3.21843e-14
1.58911e-14
2.38267e-14
1.90096e-15
1.70941e-15
1.38999e-16
-5.2607e-16
1.63971e-18
7.4563e-18
9.98021e-20
1.03779e-18
4.23166e-21
7.83589e-20
1.1456e-22
3.72356e-21
1.86125e-24
1.0918e-22
1.62109e-24
2.97528e-17
7.22861e-16
-9.22466e-14
9.75627e-14
-5.00407e-12
4.96028e-12
-3.8335e-12
4.1688e-12
-1.39284e-11
1.88192e-11
-7.31541e-12
-1.70433e-11
-3.66883e-13
-1.91728e-11
4.75685e-12
-1.86827e-11
3.76269e-12
-6.94687e-12
1.26774e-12
6.69551e-14
2.44976e-13
5.13992e-13
3.15331e-14
8.9932e-14
2.1798e-15
3.96701e-15
3.76078e-17
1.9429e-16
2.40674e-18
2.57732e-17
1.09988e-19
1.94916e-18
3.21256e-21
9.79818e-20
5.40735e-23
3.0813e-21
4.87187e-23
8.32593e-06
-1.28977e-05
1.95123e-05
-3.46633e-05
2.98397e-05
-4.2978e-05
3.89443e-05
-4.47695e-05
4.72438e-05
-4.41419e-05
5.51124e-05
-4.27992e-05
6.27495e-05
-4.13205e-05
7.02153e-05
-3.98319e-05
7.74882e-05
-3.82845e-05
8.45066e-05
-3.65587e-05
9.11869e-05
-3.44897e-05
9.74266e-05
-3.1865e-05
0.000103108
-2.84284e-05
0.000108114
-2.38975e-05
0.000112376
-1.79949e-05
0.000115936
-1.0464e-05
0.000118975
-9.98343e-07
0.00012186
1.07513e-05
0.000125194
2.50962e-05
0.000129852
4.21872e-05
0.000136868
6.18122e-05
0.000149324
8.29393e-05
0.000110253
0.000192435
1.00718e-05
-2.29694e-05
2.25084e-05
-4.70971e-05
3.28817e-05
-5.33457e-05
4.13992e-05
-5.32813e-05
4.90183e-05
-5.17557e-05
5.63038e-05
-5.00799e-05
6.34711e-05
-4.84837e-05
7.05488e-05
-4.69061e-05
7.74842e-05
-4.52168e-05
8.42008e-05
-4.32727e-05
9.06188e-05
-4.09057e-05
9.66545e-05
-3.78991e-05
0.000102217
-3.39904e-05
0.000107226
-2.8906e-05
0.000111675
-2.24441e-05
0.000115725
-1.45135e-05
0.000119703
-4.97648e-06
0.000124176
6.27772e-06
0.000129972
1.92998e-05
0.000138452
3.37075e-05
0.000151653
4.86112e-05
0.000171843
6.2749e-05
7.85017e-05
0.000203595
1.27383e-05
-3.57006e-05
2.6635e-05
-6.09363e-05
3.59003e-05
-6.25244e-05
4.29105e-05
-6.02063e-05
4.9428e-05
-5.81956e-05
5.59632e-05
-5.65453e-05
6.25854e-05
-5.5043e-05
6.92158e-05
-5.34801e-05
7.57391e-05
-5.16903e-05
8.20596e-05
-4.95503e-05
8.8115e-05
-4.69256e-05
9.38571e-05
-4.36135e-05
9.92359e-05
-3.93507e-05
0.000104203
-3.38631e-05
0.000108812
-2.70449e-05
0.000113342
-1.90398e-05
0.000118037
-9.6708e-06
0.000123275
1.03149e-06
0.000129873
1.26973e-05
0.000138869
2.47112e-05
0.000151323
3.61573e-05
0.000167491
4.65809e-05
5.57052e-05
0.000190288
1.86734e-05
-4.71813e-05
2.88645e-05
-4.87438e-05
3.2766e-05
-3.52867e-05
3.6829e-05
-3.30619e-05
4.17184e-05
-3.28422e-05
4.69159e-05
-3.25875e-05
5.21973e-05
-3.1974e-05
5.73717e-05
-3.09508e-05
6.21273e-05
-2.93775e-05
6.65106e-05
-2.7389e-05
7.06757e-05
-2.5194e-05
7.47223e-05
-2.28663e-05
7.86435e-05
-2.03449e-05
8.25068e-05
-1.73889e-05
8.67358e-05
-1.38541e-05
9.41059e-05
-1.08146e-05
0.000104224
-7.5595e-06
0.000115622
-2.86151e-06
0.000125204
4.54487e-06
0.000135013
1.4902e-05
0.000146743
2.44247e-05
0.000160903
3.2421e-05
3.84741e-05
0.000178135
1.25134e-05
1.29589e-14
6.15639e-06
9.04875e-15
5.50795e-06
4.74581e-13
6.13432e-06
1.70394e-12
7.12766e-06
2.66066e-12
8.04404e-06
4.03144e-12
8.90451e-06
4.67838e-12
9.48601e-06
4.04676e-12
9.73275e-06
2.87101e-12
9.80558e-06
1.95653e-12
9.86666e-06
1.21829e-12
9.99455e-06
6.83057e-13
1.01601e-05
3.46847e-13
1.03487e-05
1.58507e-13
1.08646e-05
6.17423e-14
1.46942e-05
1.82266e-14
2.32995e-05
2.54501e-15
4.00417e-05
-1.01541e-13
6.91586e-05
-3.01748e-13
0.000106492
1.04343e-06
0.000135583
7.8197e-06
0.000152266
1.57383e-05
2.26856e-05
0.000168055
-6.4901e-15
5.94001e-14
-4.22012e-15
4.10215e-14
-2.6323e-13
3.00803e-12
-1.03671e-12
1.02543e-11
-1.81762e-12
1.54045e-11
-3.11592e-12
1.65234e-11
-4.08348e-12
1.46483e-11
-3.97019e-12
1.1401e-11
-3.15685e-12
7.9353e-12
-2.40852e-12
5.18837e-12
-1.68199e-12
3.18627e-12
-1.06558e-12
1.82026e-12
-6.2176e-13
9.69281e-13
-3.37166e-13
4.80041e-13
-1.64857e-13
2.10844e-13
-6.47143e-14
7.11323e-14
-1.3337e-14
8.92179e-15
1.60098e-14
-1.30888e-13
1.21762e-13
-3.60059e-13
2.84681e-06
-9.78074e-12
1.66469e-05
3.79195e-08
4.38166e-05
1.89703e-07
3.05297e-07
7.80835e-05
-1.14137e-16
5.33065e-14
-7.0661e-15
5.33639e-14
-1.32007e-12
5.47704e-12
-5.57799e-12
1.52075e-11
-1.02542e-11
2.11699e-11
-1.32981e-11
2.14394e-11
-1.38996e-11
1.81866e-11
-1.25289e-11
1.37773e-11
-1.00112e-11
9.6172e-12
-7.50316e-12
6.29429e-12
-5.30806e-12
3.88019e-12
-3.5327e-12
2.23394e-12
-2.22934e-12
1.20194e-12
-1.33695e-12
6.06485e-13
-7.34738e-13
2.75927e-13
-3.20491e-13
8.89133e-14
-5.39899e-14
-2.28031e-14
1.53896e-12
-1.62865e-12
4.34963e-12
-2.95994e-12
3.85939e-12
-5.37076e-12
3.81304e-08
-1.9945e-10
2.28129e-07
-3.38294e-10
-1.19691e-10
5.33531e-07
8.65086e-15
2.68595e-14
-3.23465e-15
3.95431e-14
-1.83709e-12
4.81865e-12
-7.67399e-12
1.24643e-11
-1.33355e-11
1.63428e-11
-1.63435e-11
1.60447e-11
-1.64283e-11
1.33299e-11
-1.45034e-11
9.93546e-12
-1.16857e-11
6.84371e-12
-8.80975e-12
4.43779e-12
-6.28322e-12
2.6957e-12
-4.22896e-12
1.47167e-12
-2.70223e-12
7.17782e-13
-1.65367e-12
3.21485e-13
-9.38731e-13
1.3517e-13
-3.91105e-13
4.1561e-14
6.37747e-13
-1.05351e-12
1.4049e-10
-5.62153e-11
7.0689e-10
-9.71296e-11
7.26283e-10
-6.52077e-11
3.9142e-10
-8.52587e-11
1.65925e-10
-9.31779e-11
-4.68909e-11
8.9026e-11
4.30208e-16
8.91892e-15
-4.29165e-15
1.47849e-14
-1.37333e-12
2.27184e-12
-5.40093e-12
6.02763e-12
-9.08008e-12
7.74575e-12
-1.08586e-11
7.43008e-12
-1.07144e-11
6.03457e-12
-9.32975e-12
4.39336e-12
-7.43539e-12
2.93423e-12
-5.55957e-12
1.83829e-12
-3.90285e-12
1.02499e-12
-2.48092e-12
3.68391e-13
-1.42662e-12
-1.87208e-14
-7.66547e-13
-1.58834e-13
-3.95865e-13
-7.65314e-14
-1.54135e-13
-1.65925e-14
2.54458e-11
-2.67491e-11
1.24439e-09
-1.79259e-10
1.43006e-09
-2.2504e-10
1.58923e-09
-1.80279e-10
1.68935e-09
-1.51422e-10
1.73229e-09
-1.00287e-10
-5.89986e-11
7.21068e-10
-4.05618e-16
1.62281e-15
-1.95276e-15
2.5688e-15
-5.59515e-13
6.23641e-13
-2.16846e-12
1.72939e-12
-3.60907e-12
2.1923e-12
-4.24865e-12
2.04367e-12
-4.11574e-12
1.60513e-12
-3.51137e-12
1.11913e-12
-2.71916e-12
6.6797e-13
-1.9655e-12
3.56798e-13
-1.26444e-12
1.00355e-13
-5.26689e-13
-2.28537e-13
1.23083e-13
-6.68492e-13
3.19808e-13
-7.54466e-13
1.32304e-13
-2.67317e-13
1.51856e-13
-4.17917e-14
4.59248e-10
-1.0969e-11
1.50135e-09
-1.90923e-10
1.5074e-09
-1.6018e-10
1.47727e-09
-9.27889e-11
1.3933e-09
-3.73478e-11
5.61422e-10
-1.0383e-11
-2.81936e-12
3.84091e-11
-9.21722e-17
7.12038e-17
-3.14524e-16
8.14092e-17
-1.27552e-13
8.12497e-14
-5.03443e-13
2.40649e-13
-8.28994e-13
3.02362e-13
-9.54394e-13
2.738e-13
-8.98601e-13
2.06155e-13
-7.36983e-13
1.26245e-13
-5.11314e-13
-1.9699e-14
-3.15418e-13
-7.8808e-14
-1.0225e-13
-1.03638e-13
6.1844e-13
-5.53921e-13
1.00647e-12
-8.21639e-13
1.20645e-12
-7.88101e-13
9.12375e-13
-6.37634e-13
1.01375e-12
-1.71738e-13
5.43405e-11
-2.45367e-13
1.53559e-10
-6.51853e-14
1.56244e-10
-2.97944e-14
5.1343e-11
-2.6111e-14
1.4017e-11
-1.60754e-14
3.59654e-12
-1.72301e-14
-1.72117e-14
8.24615e-13
-4.04849e-18
3.06135e-18
-8.35271e-18
2.42672e-17
-1.32597e-14
2.2167e-16
-5.52962e-14
3.31147e-15
-9.05497e-14
7.71626e-15
-1.01898e-13
9.00773e-15
-9.24952e-14
6.54673e-15
-6.6929e-14
-4.64438e-15
7.49112e-15
-9.41191e-14
7.63346e-14
-1.79152e-13
1.7613e-13
-1.86921e-13
8.00384e-13
-2.82093e-13
9.53754e-13
-5.35373e-13
9.12782e-13
-5.80785e-13
6.78392e-13
-2.36526e-13
2.85169e-13
-3.51897e-14
7.19638e-14
-2.58097e-14
3.23957e-14
-1.9359e-14
2.52548e-14
-1.6525e-14
2.36038e-14
-1.63376e-14
2.74338e-14
-1.23792e-14
3.16095e-14
-1.20989e-14
-1.23579e-14
3.78081e-14
-1.51771e-19
1.44879e-18
-1.97229e-18
1.3666e-17
-2.79999e-17
1.26352e-16
-5.87708e-16
1.27016e-15
-1.79426e-15
2.97963e-15
-2.6209e-15
3.06502e-15
-2.31113e-15
1.39631e-15
2.42238e-15
-9.3779e-15
6.03381e-14
-8.68682e-14
1.06896e-13
-1.7773e-13
1.25632e-13
-1.37418e-13
1.13809e-13
-6.11578e-14
2.52579e-13
-1.88003e-14
2.3685e-13
-8.06072e-15
3.8521e-14
-1.3796e-14
2.22977e-14
-1.78102e-14
1.85144e-14
-1.5729e-14
1.84588e-14
-1.34554e-14
1.85249e-14
-1.09126e-14
1.94378e-14
-9.40917e-15
2.77861e-14
-9.42312e-15
3.72005e-14
-9.12009e-15
-9.4663e-15
4.68427e-14
-5.69995e-20
6.13499e-19
-8.43142e-19
6.54043e-18
-1.20412e-17
5.84623e-17
-1.70767e-16
4.13462e-16
-5.28751e-16
9.38427e-16
-6.85993e-16
7.91885e-16
-3.81981e-16
6.79669e-18
6.511e-15
-9.03124e-15
4.16727e-14
-2.8378e-14
7.47067e-14
-9.72077e-14
6.15621e-14
-8.60355e-14
1.76925e-14
-3.30494e-14
3.92476e-15
-5.38635e-15
2.49072e-15
-3.74684e-15
7.14922e-15
-7.30542e-15
1.561e-14
-1.00409e-14
1.81179e-14
-9.11017e-15
1.79956e-14
-5.91699e-15
1.5301e-14
-2.90462e-15
1.41061e-14
-2.42456e-15
1.39823e-14
-2.55441e-15
1.51606e-14
-3.27147e-15
-8.29904e-15
2.48835e-14
-1.78481e-20
2.21081e-19
-2.95737e-19
2.50136e-18
-4.10715e-18
2.0676e-17
-4.13378e-17
1.1019e-16
-1.25021e-16
2.24006e-16
-1.34307e-16
1.36947e-16
-1.42139e-18
-1.06776e-16
2.99767e-15
-2.32992e-15
8.08147e-15
-1.04904e-14
2.02629e-14
-2.16931e-14
1.93691e-14
-1.92854e-14
5.97602e-15
-1.08513e-14
1.6569e-15
-2.45219e-15
1.92207e-15
-1.15761e-15
5.19044e-15
-1.90898e-15
5.52119e-15
-1.80279e-15
4.76238e-15
-1.09062e-15
2.6885e-15
-4.88171e-16
1.91711e-15
-4.75029e-16
2.11542e-15
-7.19683e-16
3.63383e-15
-1.63226e-15
6.91344e-15
-3.26906e-15
-1.19672e-14
2.3855e-14
-4.49548e-21
6.18131e-20
-8.02998e-20
6.89038e-19
-1.0467e-18
5.00993e-18
-8.03889e-18
2.09953e-17
-2.2034e-17
3.47396e-17
-1.73422e-17
1.16272e-17
4.85515e-17
-2.12715e-17
4.7663e-16
-5.91866e-16
2.21968e-15
-2.8921e-15
3.43369e-15
-6.057e-15
3.12502e-15
-3.88735e-15
1.50655e-15
-1.09282e-15
3.62854e-16
-1.50967e-16
3.38137e-16
-1.22652e-16
6.15188e-16
-1.59943e-16
6.34332e-16
-1.41101e-16
3.16092e-16
-8.7353e-17
2.35581e-16
-8.38515e-17
3.17999e-16
-1.47367e-16
8.76976e-16
-5.04657e-16
2.7177e-15
-1.71593e-15
6.57396e-15
-4.1124e-15
-1.92583e-14
3.38377e-14
-8.3745e-22
1.11636e-20
-1.52524e-20
1.10038e-19
-1.78516e-19
6.49279e-19
-1.09511e-18
2.02509e-18
-2.47824e-18
2.44541e-18
-1.08251e-18
1.34901e-19
4.05424e-18
-3.87047e-18
9.23808e-17
-1.15126e-16
4.45466e-16
-4.77601e-16
7.58018e-16
-8.72331e-16
3.66202e-16
-4.21333e-16
6.08702e-17
-1.07922e-16
2.38336e-17
-1.9512e-17
2.70801e-17
-1.18265e-17
4.01954e-17
-1.27206e-17
3.72327e-17
-1.22072e-17
2.95492e-17
-1.03891e-17
3.6434e-17
-1.62536e-17
1.26843e-16
-8.30695e-17
6.48233e-16
-4.71412e-16
2.51349e-15
-1.87861e-15
7.35423e-15
-5.19716e-15
-2.81095e-14
4.02427e-14
-9.67943e-23
7.90356e-22
-1.63569e-21
4.90673e-21
-1.5886e-20
1.67955e-20
-7.38388e-20
2.89009e-20
-1.24043e-19
1.02802e-20
-9.08046e-21
1.45292e-21
3.99419e-19
-7.44846e-19
1.23519e-17
-1.26786e-17
4.92183e-17
-3.88167e-17
7.67362e-17
-5.07475e-17
2.5469e-17
-3.70819e-17
5.24977e-18
-1.46396e-17
1.92684e-18
-4.06035e-18
2.09515e-18
-1.08124e-18
2.61495e-18
-1.19699e-18
2.8237e-18
-1.07306e-18
2.92706e-18
-1.23182e-18
8.66526e-18
-6.14453e-18
7.55694e-17
-6.01533e-17
5.19742e-16
-4.22676e-16
2.27967e-15
-1.87594e-15
7.31127e-15
-5.74381e-15
-3.49614e-14
4.10082e-14
-4.28405e-24
4.80699e-23
-4.79134e-23
4.55585e-22
-2.74984e-22
2.07035e-21
-7.18363e-22
5.38984e-21
-3.62568e-22
7.29103e-21
-6.93833e-23
2.07569e-21
5.13814e-20
-6.88785e-20
8.9303e-19
-5.99521e-19
2.46696e-18
-9.55288e-19
3.24952e-18
-8.48286e-19
2.4513e-18
-3.07948e-18
7.8739e-19
-1.46453e-18
2.20661e-19
-5.05459e-19
1.51639e-19
-6.35147e-20
1.96665e-19
-5.85732e-20
2.05911e-19
-6.81267e-20
3.55498e-19
-2.58185e-19
3.71776e-18
-3.28606e-18
4.64319e-17
-3.92108e-17
3.67499e-16
-3.27392e-16
1.76103e-15
-1.66085e-15
6.67699e-15
-5.92072e-15
-3.73549e-14
3.5761e-14
-1.65781e-25
1.26011e-23
-2.89161e-24
1.26726e-22
-2.21154e-23
6.30036e-22
-8.87744e-23
1.87995e-21
-1.74106e-22
3.35358e-21
-6.87386e-23
2.03464e-21
3.13972e-21
-2.3539e-21
2.4241e-20
-5.37655e-21
3.61674e-20
-5.64661e-21
4.11271e-20
-3.7637e-20
1.91262e-19
-1.21119e-19
6.74315e-20
-6.87605e-20
1.95066e-20
-3.23878e-20
6.30096e-21
-2.91875e-21
7.69808e-21
-2.47069e-21
1.26909e-20
-8.25127e-21
1.00284e-19
-1.08551e-19
1.72047e-18
-1.61716e-18
2.3692e-17
-2.23992e-17
2.24446e-16
-2.29832e-16
1.26274e-15
-1.36155e-15
5.54696e-15
-6.07637e-15
-3.99073e-14
2.87207e-14
-3.00758e-26
1.69906e-24
-5.29165e-25
1.81749e-23
-4.29424e-24
9.84409e-23
-1.98427e-23
3.29956e-22
-5.23894e-23
7.03669e-22
-4.53156e-23
5.20409e-22
8.48393e-23
-1.30203e-21
1.37955e-22
-1.66422e-21
1.88184e-22
-1.62949e-21
2.20696e-21
-1.08176e-21
5.54096e-21
-4.83996e-22
2.71809e-21
-4.43011e-23
1.14983e-21
-3.61951e-23
2.18007e-22
-5.92798e-23
2.60786e-22
-1.99724e-22
2.07515e-21
-2.90811e-21
3.86304e-20
-4.75545e-20
6.65759e-19
-7.4646e-19
1.07078e-17
-1.20742e-17
1.25245e-16
-1.5094e-16
8.38939e-16
-1.07926e-15
4.66245e-15
-6.39367e-15
-4.2254e-14
2.21546e-14
-3.1028e-27
2.24416e-27
-5.1036e-26
9.38554e-27
-4.20043e-25
7.2118e-27
-2.13198e-24
3.88971e-30
-6.82637e-24
-4.71133e-25
-7.42798e-24
-1.31476e-22
2.10415e-23
-4.609e-22
2.93684e-23
-2.53509e-22
3.67924e-23
-1.81093e-22
2.16076e-23
-1.7901e-22
8.58534e-24
-9.39513e-23
1.57361e-24
-5.15868e-24
1.95087e-24
-1.36539e-24
5.40589e-24
-3.73929e-24
3.25935e-23
-6.36416e-23
6.92809e-22
-1.24584e-21
1.33401e-20
-2.10596e-20
2.4278e-19
-3.60089e-19
4.53087e-18
-6.49311e-18
6.41533e-17
-9.57235e-17
5.31382e-16
-8.52484e-16
3.869e-15
-6.87572e-15
-4.381e-14
1.65351e-14
-3.60499e-30
2.02327e-30
-1.98155e-29
6.22635e-30
-1.91339e-29
4.02889e-30
-1.42401e-32
1.31903e-33
5.12888e-27
-6.34409e-34
1.65093e-24
-4.92884e-29
3.37584e-24
-4.7836e-26
1.93922e-24
-5.47831e-25
2.49938e-24
-1.0949e-24
3.50795e-24
-2.22631e-25
1.35818e-24
-6.96431e-26
4.93814e-26
-5.62916e-26
5.62132e-26
-8.34022e-26
3.595e-25
-1.06805e-24
9.60278e-24
-2.56719e-23
2.2723e-22
-5.22375e-22
4.51403e-21
-9.90372e-21
8.96379e-20
-1.8218e-19
1.83537e-18
-3.50878e-18
3.03441e-17
-5.85266e-17
3.18105e-16
-6.66491e-16
3.0665e-15
-7.38848e-15
-4.47816e-14
1.28679e-14
-3.12865e-33
-2.5246e-50
-1.06076e-32
4.67496e-51
-6.48117e-33
-2.04135e-48
-2.25248e-36
1.54617e-38
4.63324e-36
-3.45446e-36
1.88826e-31
-2.10294e-31
2.93654e-28
-9.3102e-29
4.19777e-27
-8.26668e-28
8.69112e-27
-2.3375e-27
1.08369e-27
-3.69279e-27
9.44667e-28
-4.34477e-27
1.23924e-27
-3.96213e-27
3.50182e-27
-1.52323e-26
9.06253e-26
-3.74385e-25
2.74921e-24
-9.34493e-24
6.67932e-23
-2.1338e-22
1.49777e-21
-4.43372e-21
3.16975e-20
-8.79271e-20
6.82771e-19
-1.78243e-18
1.26075e-17
-3.29295e-17
1.69968e-16
-4.95562e-16
2.14287e-15
-7.39577e-15
-4.41967e-14
9.64852e-15
3.84687e-53
-7.21215e-50
-6.75961e-54
2.29229e-50
1.78074e-51
-1.0005e-47
-3.95891e-42
-1.11397e-41
-1.21102e-38
-5.28619e-38
5.24915e-35
-8.62825e-35
1.23558e-31
-2.22288e-31
2.41391e-30
-1.58499e-29
1.0927e-29
-7.54747e-29
2.50372e-29
-1.36656e-28
4.02284e-29
-1.64143e-28
5.23007e-29
-2.43511e-28
5.31561e-28
-3.54658e-27
1.9736e-26
-1.12134e-25
6.05668e-25
-3.04058e-24
1.66671e-23
-7.53384e-23
4.03747e-22
-1.70348e-21
9.07722e-21
-3.63719e-20
2.01191e-19
-7.73219e-19
4.01387e-18
-1.58236e-17
7.01095e-17
-3.36249e-16
1.09625e-15
-6.62544e-15
-4.02573e-14
5.20282e-15
1.37499e-52
-1.16603e-49
-2.77164e-53
1.12343e-49
5.03098e-51
4.51684e-47
-1.01322e-41
-2.21158e-43
-1.04384e-38
-2.60056e-40
-3.45502e-35
-3.34388e-37
-4.97941e-33
-5.35596e-34
-5.02219e-32
-1.15561e-31
-3.79193e-32
-7.28283e-31
1.44197e-31
-1.47117e-30
4.83807e-31
-2.23445e-30
1.62909e-30
-2.47597e-29
5.788e-29
-9.74621e-28
2.5297e-27
-3.00531e-26
8.66752e-26
-8.53898e-25
2.56729e-24
-2.28774e-23
6.60272e-23
-5.58681e-22
1.52022e-21
-1.26315e-20
3.26134e-20
-2.74651e-19
6.39699e-19
-6.34645e-18
1.278e-17
-2.11223e-16
1.52521e-16
-5.1126e-15
-3.23248e-14
1.48073e-17
1.60952e-52
-8.52942e-50
-1.02464e-52
-1.2005e-50
-5.16505e-47
-4.7483e-50
-2.20082e-43
-1.37411e-46
-2.62023e-40
-3.90403e-43
-3.2698e-37
-2.40506e-40
-6.22548e-35
-1.56603e-38
-1.44107e-33
-4.55838e-36
-4.02147e-33
-3.27753e-34
-5.2756e-33
-4.26075e-33
-9.04733e-33
-1.43635e-31
-1.67647e-31
-6.79761e-30
-4.5863e-30
-2.31976e-28
-1.03163e-28
-7.48595e-27
-2.54323e-27
-2.27552e-25
-8.24272e-26
-6.5509e-24
-3.25291e-24
-1.73144e-22
-1.23188e-22
-4.15805e-21
-4.03374e-21
-9.36038e-20
-2.3377e-19
-2.52059e-18
-2.65209e-17
-1.16115e-16
-5.77877e-16
-3.23419e-15
-2.18909e-14
-2.8197e-15
1.05189e-52
-1.96982e-50
5.52678e-54
-4.79451e-51
-8.72598e-53
-3.74422e-50
-7.10403e-46
-1.23119e-46
-1.72332e-44
-1.35601e-43
-1.54788e-42
-6.36904e-41
-4.30026e-40
-5.37814e-39
-1.67862e-37
-2.63336e-37
-3.04567e-36
-1.37296e-35
-5.85667e-35
-7.3464e-34
-3.29511e-33
-3.32965e-32
-1.45539e-31
-1.30385e-30
-5.46683e-30
-4.95259e-29
-2.00474e-28
-1.7758e-27
-7.23433e-27
-5.93674e-26
-2.52242e-25
-1.85594e-24
-8.20498e-24
-5.51592e-23
-2.30545e-22
-1.54767e-21
-5.95467e-21
-4.18412e-20
-3.41958e-19
-1.24757e-18
-3.64188e-17
-5.28309e-17
-7.41587e-16
-1.63634e-15
-1.28699e-14
-3.82618e-15
1.05334e-53
-8.80124e-52
-2.93e-56
-4.70676e-52
-3.06001e-50
-3.51322e-51
-9.69824e-47
-2.5632e-47
-3.60641e-45
-1.49059e-44
-1.22448e-42
-6.16237e-42
-8.12948e-41
-5.42435e-40
-4.45577e-39
-3.65745e-38
-3.13856e-37
-2.11406e-36
-2.03029e-35
-1.09645e-34
-9.78742e-34
-5.29116e-33
-4.46362e-32
-2.39257e-31
-1.99983e-30
-1.02148e-29
-8.51082e-29
-4.17473e-28
-3.41838e-27
-1.6601e-26
-1.33308e-25
-6.40913e-25
-5.09863e-24
-2.3575e-23
-1.81834e-22
-7.96877e-22
-5.66947e-21
-2.49881e-20
-2.67824e-19
-7.50475e-19
-2.34146e-17
-2.16677e-17
-5.46294e-16
-6.78424e-16
-6.56665e-15
-3.60368e-15
3.35057e-55
-3.42798e-53
-1.63871e-55
-2.35544e-53
-3.35241e-50
-2.26648e-51
-2.2947e-47
-2.62107e-48
-4.24053e-46
-1.83559e-45
-9.51822e-44
-5.31449e-43
-1.03522e-41
-5.05772e-41
-8.58888e-40
-3.88054e-39
-5.83734e-38
-2.58685e-37
-3.56211e-36
-1.56092e-35
-2.049e-34
-8.99524e-34
-1.10956e-32
-5.06689e-32
-5.73906e-31
-2.75103e-30
-2.92693e-29
-1.43712e-28
-1.47468e-27
-7.14712e-27
-7.23534e-26
-3.21869e-25
-3.32752e-24
-1.3001e-23
-1.36231e-22
-4.70176e-22
-5.19632e-21
-1.47095e-20
-2.39154e-19
-3.92928e-19
-1.06749e-17
-9.12476e-18
-2.99519e-16
-2.37355e-16
-2.89456e-15
-2.672e-15
8.51766e-57
-7.65106e-55
-1.79343e-56
-7.18437e-55
-1.75309e-51
-4.82278e-52
-4.18272e-48
-3.73636e-49
-4.3836e-47
-1.97654e-46
-9.41349e-45
-3.93374e-44
-1.10325e-42
-4.26981e-42
-1.03055e-40
-3.87836e-40
-8.23277e-39
-3.23939e-38
-6.03634e-37
-2.6316e-36
-4.35287e-35
-2.03214e-34
-3.08478e-33
-1.52574e-32
-2.11457e-31
-1.0629e-30
-1.42309e-29
-6.62681e-29
-8.81899e-28
-3.62441e-27
-4.85266e-26
-1.70938e-25
-2.62334e-24
-6.87714e-24
-1.37094e-22
-2.35433e-22
-5.56178e-21
-6.82347e-21
-1.83227e-19
-1.67184e-19
-5.06519e-18
-3.48295e-18
-1.31451e-16
-7.09949e-17
-1.11023e-15
-1.65401e-15
1.21847e-58
-1.76307e-56
-1.21692e-57
-2.38186e-56
-4.53252e-52
-2.57265e-53
-3.42613e-49
-2.96261e-50
-3.76494e-48
-1.1176e-47
-7.68608e-46
-2.60201e-45
-1.02191e-43
-3.5739e-43
-1.14479e-41
-4.45749e-41
-1.26473e-39
-5.34463e-39
-1.22005e-37
-5.92019e-37
-1.22281e-35
-5.90752e-35
-2.30192e-33
-5.18978e-33
-2.64202e-31
-3.94991e-31
-2.15698e-29
-2.57139e-29
-1.41511e-27
-1.42034e-27
-7.61236e-26
-6.62534e-26
-3.39591e-24
-2.60358e-24
-1.26278e-22
-8.61391e-23
-3.92651e-21
-2.40068e-21
-1.02202e-19
-5.64244e-20
-2.29943e-18
-1.12162e-18
-4.80292e-17
-1.95899e-17
-3.47547e-16
-8.53082e-16
2.58695e-60
-2.34436e-58
-6.45003e-59
-1.96384e-57
-7.28851e-53
-3.39504e-54
-2.77605e-50
-1.71995e-51
-2.36933e-49
-7.76478e-49
-6.00206e-47
-1.96212e-46
-9.16372e-45
-3.69998e-44
-4.5868e-42
-6.18439e-42
-1.39678e-39
-9.12021e-40
-2.33431e-37
-1.16863e-37
-2.90517e-35
-1.28375e-35
-2.90696e-33
-1.19707e-33
-2.40184e-31
-9.41318e-32
-1.65455e-29
-6.21678e-30
-9.53447e-28
-3.44095e-28
-4.60305e-26
-1.59509e-26
-1.86382e-24
-6.19601e-25
-6.3387e-23
-2.01962e-23
-1.81419e-21
-5.53499e-22
-4.37938e-20
-1.27812e-20
-8.97663e-19
-2.49376e-19
-1.70998e-17
-4.20435e-18
-7.41511e-17
-3.22521e-16
4.24712e-62
-1.59063e-60
-1.38856e-57
-2.78245e-58
-2.92086e-54
-4.41274e-55
-3.80549e-51
-2.15255e-52
-2.66654e-49
-5.48932e-50
-5.71332e-47
-1.47848e-47
-1.63146e-44
-3.26696e-45
-3.51676e-42
-6.19837e-43
-6.02363e-40
-1.00511e-40
-8.43302e-38
-1.382e-38
-9.77361e-36
-1.60009e-36
-9.42776e-34
-1.55203e-34
-7.58522e-32
-1.25707e-32
-5.09494e-30
-8.48774e-31
-2.85925e-28
-4.77575e-29
-1.34208e-26
-2.24098e-27
-5.27749e-25
-8.78434e-26
-1.74241e-23
-2.88323e-24
-4.84265e-22
-7.94587e-23
-1.1361e-20
-1.84363e-21
-2.25775e-19
-3.61236e-20
-4.3975e-18
-6.08135e-19
-1.07002e-17
-7.67988e-17
3.26527e-64
-1.42658e-62
-2.56077e-58
-1.42129e-59
-4.21854e-55
-1.52398e-56
-2.02778e-52
-1.06768e-53
-3.64404e-50
-2.44149e-51
-1.01463e-47
-6.85411e-49
-2.48327e-45
-1.62524e-46
-5.04444e-43
-3.31188e-44
-8.53797e-41
-5.75687e-42
-1.20566e-38
-8.45826e-40
-1.41963e-36
-1.0422e-37
-1.39237e-34
-1.07091e-35
-1.13672e-32
-9.14537e-34
-7.72395e-31
-6.48066e-32
-4.37147e-29
-3.8107e-30
-2.06381e-27
-1.86157e-28
-8.14591e-26
-7.57151e-27
-2.69573e-24
-2.5713e-25
-7.50388e-23
-7.31484e-24
-1.76276e-21
-1.74877e-22
-3.50256e-20
-3.52512e-21
-6.57092e-19
-6.07978e-20
-1.09923e-18
-1.20282e-17
-3.23399e-66
-3.84864e-64
-1.35601e-59
-5.9156e-61
-3.94935e-56
-5.09966e-58
-1.04386e-53
-1.71237e-55
-2.13101e-51
-5.20585e-53
-5.96544e-49
-1.49312e-50
-1.45842e-46
-3.76696e-48
-3.03779e-44
-8.32659e-46
-5.35835e-42
-1.58679e-43
-7.94846e-40
-2.56788e-41
-9.85612e-38
-3.48714e-39
-1.01722e-35
-3.94133e-37
-8.71585e-34
-3.68953e-35
-6.19489e-32
-2.85413e-33
-3.65426e-30
-1.824e-31
-1.79191e-28
-9.64132e-30
-7.32309e-27
-4.22476e-28
-2.5024e-25
-1.53943e-26
-7.17671e-24
-4.68126e-25
-1.73395e-22
-1.19231e-23
-3.53611e-21
-2.55348e-22
-6.74918e-20
-4.66439e-21
-8.85138e-20
-1.29933e-18
-1.82938e-64
-1.49358e-65
-5.78751e-61
-9.5434e-63
-4.99847e-58
-5.88777e-60
-3.36261e-55
-1.82025e-57
-5.00188e-53
-3.82303e-55
-1.42446e-50
-1.13882e-52
-3.62436e-48
-3.13952e-50
-8.06377e-46
-7.8091e-48
-1.54415e-43
-1.70434e-45
-2.5078e-41
-3.18713e-43
-3.41477e-39
-5.01632e-41
-3.86802e-37
-6.56618e-39
-3.62835e-35