/*--------------------------------*- C++ -*----------------------------------*\
| =========                 |                                                 |
| \\      /  F ield         | OpenFOAM: The Open Source CFD Toolbox           |
|  \\    /   O peration     | Version:  v2012                                 |
|   \\  /    A nd           | Website:  www.openfoam.com                      |
|    \\/     M anipulation  |                                                 |
\*---------------------------------------------------------------------------*/
FoamFile
{
    version     2.0;
    format      ascii;
    class       volScalarField;
    location    "0.35";
    object      alpha.water;
}
// * * * * * * * * * * * * * * * * * * * * * * * * * * * * * * * * * * * * * //

dimensions      [0 0 0 0 0 0 0];


internalField   nonuniform List<scalar> 
2268
(
1
1
1
1
1
1
1
1
1
1
1
1
1
1
1
1
1
1
1
1
0.99356
0.90931
0.909109
1
1
1
1
1
1
1
1
1
1
1
1
1
1
1
1
1
1
1
1
1
0.946237
0.951085
1
1
1
1
1
1
1
1
1
1
1
1
1
1
1
1
1
1
1
1
1
0.999624
0.998893
1
1
1
1
1
1
1
1
1
1
1
1
1
1
1
1
1
1
1
1
1
0.999919
0.992276
1
1
1
1
1
1
1
1
1
1
1
1
1
1
1
1
1
1
1
1
1
1
0.992255
1
1
1
1
1
1
1
1
1
1
1
1
1
1
1
1
1
1
1
1
1
1
0.99251
1
1
1
1
1
1
1
1
1
1
1
1
1
1
1
1
1
1
1
1
1
1
0.99279
1
1
1
1
1
1
1
1
1
1
1
1
1
1
1
1
1
1
1
1
1
1
0.993099
2.87708e-17
1.0962e-17
3.73976e-18
5.94948e-18
7.81437e-17
2.87021e-16
1.22792e-15
8.02229e-16
1.48895e-16
1.61432e-17
1.22802e-18
3.2239e-20
1.46212e-21
7.31441e-23
7.67267e-24
3.13388e-25
7.3606e-27
9.04865e-29
4.34677e-29
1.26455e-16
7.63419e-17
8.23818e-17
1.04415e-15
8.30344e-15
1.40491e-14
1.40775e-14
1.19956e-14
5.17889e-15
1.26971e-15
1.1578e-16
7.74813e-19
3.22222e-20
1.46154e-21
3.53566e-22
1.49607e-23
2.33203e-25
1.68546e-27
4.34677e-29
1.97714e-15
5.78146e-15
1.68582e-14
7.42285e-14
3.28681e-13
3.47177e-13
3.9175e-13
3.43358e-13
1.74038e-13
5.34686e-14
5.63686e-15
5.1379e-17
2.08467e-18
8.85382e-20
1.02256e-20
3.10082e-22
5.25818e-24
6.04884e-26
1.54896e-27
2.30406e-14
1.12036e-13
4.69616e-13
1.87301e-12
4.14092e-12
3.13224e-12
4.0985e-12
3.83727e-12
1.61564e-12
8.91359e-13
1.60286e-13
2.86397e-15
7.80206e-17
3.15583e-18
2.28971e-19
6.58548e-21
1.43973e-22
1.76991e-24
5.51451e-26
2.14802e-13
1.45767e-12
8.18624e-12
2.45195e-11
1.92136e-11
5.48248e-11
6.39263e-11
5.86299e-11
2.74034e-11
7.07156e-12
1.59306e-12
8.51308e-14
1.94572e-15
8.51407e-17
4.62656e-18
1.55211e-19
3.64456e-21
4.60491e-23
1.62355e-24
2.1649e-12
4.29837e-12
2.22815e-12
1.86421e-11
2.67663e-10
9.27884e-10
9.25567e-10
8.23501e-10
3.61125e-10
9.02492e-11
1.35502e-11
9.55802e-13
4.03205e-14
1.95151e-15
1.04846e-16
3.61019e-18
8.80192e-20
1.14675e-21
4.37617e-23
2.20722e-12
-2.80518e-12
9.80148e-12
9.64557e-11
4.60062e-09
1.51437e-08
1.26649e-08
1.05803e-08
4.75086e-09
1.23115e-09
1.96003e-10
1.67002e-11
7.71409e-13
4.02829e-14
2.28423e-15
8.2412e-17
2.10259e-18
2.83879e-20
1.11543e-21
2.59046e-12
-3.82757e-13
-1.37892e-12
6.96143e-09
6.4776e-08
2.0988e-07
1.4685e-07
1.15096e-07
5.28167e-08
1.46237e-08
2.57815e-09
2.63566e-10
1.37476e-11
7.68951e-13
4.58985e-14
1.79857e-15
5.0474e-17
7.29075e-19
2.69935e-20
1
0.999999
0.999996
0.999995
0.999995
0.999996
0.999996
0.999997
0.999997
0.999997
0.999998
0.999998
0.999999
0.999999
1
1
1
1
1
1
1
1
0.996403
0.999999
0.999981
0.99996
0.999957
0.99996
0.999964
0.999968
0.999971
0.999974
0.999976
0.99998
0.999984
0.999989
0.999998
1
0.999998
0.999998
1
1
1
1
1
1
0.999956
0.999619
0.999382
0.999378
0.999427
0.999476
0.999517
0.999551
0.999581
0.999611
0.999648
0.999697
0.99976
0.999832
0.999857
0.999931
0.99998
0.999825
1
1
1
1
1
0.982728
0.906167
0.840486
0.836309
0.84161
0.846275
0.847789
0.846741
0.842451
0.835344
0.827843
0.822101
0.819211
0.817755
0.818622
0.836401
0.879047
0.935452
0.99359
0.999998
1.00001
1
0.99999
0.391507
0.213111
0.128441
0.125825
0.13008
0.132986
0.133429
0.131476
0.126102
0.118618
0.111423
0.10605
0.1031
0.101065
0.0981228
0.112951
0.153735
0.231843
0.36871
0.59598
0.90703
0.999988
0.999981
-1.4349e-10
-1.08142e-10
-7.15695e-09
-2.52475e-08
-3.8656e-08
-5.86952e-08
-6.91383e-08
-6.12294e-08
-4.48971e-08
-3.19745e-08
-2.10983e-08
-1.27742e-08
-7.1887e-09
-3.7757e-09
-1.78563e-09
-6.76227e-10
-1.33438e-10
1.07147e-34
7.54043e-11
0.00709743
0.0545294
0.160173
0.334565
-4.3824e-10
-5.29523e-10
-4.6952e-08
-1.42873e-07
-2.05978e-07
-2.21048e-07
-1.9891e-07
-1.58633e-07
-1.14312e-07
-7.83698e-08
-5.12767e-08
-3.18411e-08
-1.88857e-08
-1.0718e-08
-5.60718e-09
-2.34542e-09
-3.82538e-10
7.69364e-25
3.03321e-10
1.44311e-08
2.80564e-08
6.64146e-07
3.699e-07
-3.92528e-10
-5.89313e-10
-6.94729e-08
-1.83891e-07
-2.47519e-07
-2.51852e-07
-2.18162e-07
-1.70148e-07
-1.23272e-07
-8.46396e-08
-5.54974e-08
-3.4583e-08
-2.05742e-08
-1.17801e-08
-6.28559e-09
-2.47403e-09
4.72675e-26
9.80637e-08
1.70282e-06
4.47789e-06
2.69552e-06
6.10509e-07
4.41823e-07
-2.21754e-10
-3.57141e-10
-4.82872e-08
-1.27205e-07
-1.67319e-07
-1.66883e-07
-1.42152e-07
-1.09291e-07
-7.81494e-08
-5.30485e-08
-3.41024e-08
-1.99781e-08
-1.06375e-08
-5.31192e-09
-2.55683e-09
-9.30261e-10
2.64459e-42
4.023e-06
7.3758e-06
7.4295e-06
7.42617e-06
7.43008e-06
6.95257e-06
-7.43747e-11
-1.19289e-10
-1.95484e-08
-5.38163e-08
-7.07479e-08
-6.94778e-08
-5.79805e-08
-4.3541e-08
-3.01413e-08
-1.97002e-08
-1.15569e-08
-4.41709e-09
0
2.37645e-09
1.04596e-09
8.52829e-12
2.59416e-08
4.89398e-06
7.1529e-06
7.37641e-06
7.41428e-06
5.85194e-06
1.15955e-06
-1.29439e-11
-1.90481e-11
-4.85446e-09
-1.39833e-08
-1.82383e-08
-1.74553e-08
-1.40909e-08
-1.01222e-08
-6.22364e-09
-3.46841e-09
-1.0206e-09
1.84461e-09
9.06824e-09
9.2801e-09
5.87065e-09
1.49372e-10
1.07604e-07
6.77261e-07
7.57292e-07
1.51272e-07
1.20965e-10
1.46994e-11
8.20751e-11
-5.37414e-13
-5.64362e-13
-5.87784e-10
-1.80392e-09
-2.33208e-09
-2.16781e-09
-1.67595e-09
-1.05019e-09
0
6.6899e-10
8.56336e-10
5.97649e-09
8.86748e-09
9.2801e-09
7.85652e-09
1.81972e-09
1.4815e-10
1.2933e-10
1.18402e-10
1.08312e-10
1.18971e-10
1.27966e-10
1.3989e-10
-2.18627e-14
-1.60162e-13
-1.5184e-12
-2.34029e-11
-5.59848e-11
-6.69819e-11
-4.99015e-11
7.38554e-28
7.81002e-10
1.61045e-09
1.60869e-09
1.18779e-09
2.4944e-09
2.39899e-09
6.99504e-10
1.96368e-10
1.30464e-10
1.21572e-10
1.12132e-10
1.02549e-10
1.28016e-10
1.59857e-10
1.87691e-10
-9.85781e-15
-8.71062e-14
-8.30635e-13
-8.57231e-12
-2.05826e-11
-2.16518e-11
-1.00905e-11
6.71569e-11
4.8417e-10
1.33414e-09
1.1635e-09
2.90043e-10
2.71042e-11
2.48378e-11
4.9451e-11
1.25008e-10
1.53327e-10
1.44565e-10
1.17744e-10
9.59781e-11
8.08118e-11
7.56811e-11
9.66118e-11
-4.01635e-15
-4.06778e-14
-3.72532e-13
-2.6919e-12
-6.23404e-12
-5.36677e-12
-4.70195e-14
5.05937e-11
1.24716e-10
4.11163e-10
3.78113e-10
1.89016e-10
2.34894e-11
2.40697e-11
6.01648e-11
5.82808e-11
4.94298e-11
3.04444e-11
1.45197e-11
1.39306e-11
1.8629e-11
2.88672e-11
7.7741e-11
-1.40642e-15
-1.52883e-14
-1.28672e-13
-6.97732e-13
-1.44305e-12
-8.97867e-13
6.76857e-13
9.13668e-12
4.51463e-11
8.6001e-11
7.53622e-11
4.44778e-11
1.12811e-11
4.7906e-12
8.00145e-12
7.65072e-12
4.60421e-12
2.09273e-12
2.37443e-12
4.70758e-12
1.29294e-11
2.66606e-11
1.13896e-10
-3.85391e-16
-4.15914e-15
-3.06288e-14
-1.30152e-13
-2.18517e-13
-7.42619e-14
7.43649e-14
2.24775e-12
1.10336e-11
2.3577e-11
1.45675e-11
3.86668e-12
4.9412e-13
4.62707e-13
6.06699e-13
5.42011e-13
3.42232e-13
3.61855e-13
7.9912e-13
3.35392e-12
1.24293e-11
3.10852e-11
1.52991e-10
-6.86722e-17
-6.58268e-16
-3.91768e-15
-1.23557e-14
-1.51039e-14
-8.44157e-16
1.37473e-14
3.98582e-13
1.63314e-12
2.96282e-12
1.45487e-12
3.80891e-13
7.06311e-14
4.18185e-14
4.59612e-14
4.43874e-14
3.90234e-14
7.18495e-14
4.56516e-13
2.89312e-12
1.23314e-11
3.35781e-11
1.87225e-10
-4.82003e-18
-2.91654e-17
-1.00391e-16
-1.74291e-16
-6.26299e-17
-8.9493e-18
2.48071e-15
4.01936e-14
1.21697e-13
1.58374e-13
1.23294e-13
5.07707e-14
1.46368e-14
3.48246e-15
4.03362e-15
3.63842e-15
4.58605e-15
2.84144e-14
3.08482e-13
2.28822e-12
1.04086e-11
3.36799e-11
2.01758e-10
-2.91577e-19
-2.69589e-18
-1.22945e-17
-3.22354e-17
-4.39723e-17
-1.26324e-17
2.10878e-16
1.7828e-15
2.83184e-15
2.57554e-15
9.75575e-15
4.7159e-15
1.65066e-15
1.84592e-16
1.8352e-16
2.25792e-16
1.04762e-15
1.4628e-14
1.79685e-13
1.58027e-12
8.36911e-12
3.17492e-11
2.00455e-10
-7.61714e-20
-7.47664e-19
-3.72531e-18
-1.11797e-17
-2.00795e-17
-1.22719e-17
9.84779e-18
1.87627e-17
1.94715e-17
1.13107e-16
3.60445e-16
2.05136e-16
9.72251e-17
8.03468e-18
7.65174e-18
3.076e-17
4.49536e-16
6.69068e-15
9.52296e-14
1.02787e-12
6.38384e-12
3.11571e-11
2.04015e-10
-1.02461e-20
-1.07031e-19
-5.8054e-19
-1.95495e-18
-4.19226e-18
-3.11847e-18
5.60186e-18
5.93651e-18
5.684e-18
3.42655e-18
1.54539e-18
1.2933e-19
1.0486e-19
1.76173e-19
7.09012e-19
1.16171e-17
1.90695e-16
2.99578e-15
4.9232e-14
6.39004e-13
4.85249e-12
3.19052e-11
2.06801e-10
-1.35086e-23
-5.52146e-23
-4.24687e-23
-2.2996e-26
2.79404e-21
7.83471e-19
1.51109e-18
7.62549e-19
5.36082e-19
5.50811e-19
2.94266e-19
1.47662e-20
3.95704e-21
1.27511e-20
2.46604e-19
4.9039e-18
8.33171e-17
1.42897e-15
2.57867e-14
3.89088e-13
3.72297e-12
3.37888e-11
2.06517e-10
-1.21594e-26
-3.66094e-26
-2.37124e-26
-7.79038e-30
1.82639e-30
1.36434e-25
1.32618e-22
1.52344e-21
3.05611e-21
6.23444e-22
1.99372e-22
1.62481e-22
2.63252e-22
3.97339e-21
9.76285e-20
1.99277e-18
3.82536e-17
7.04291e-16
1.34711e-14
2.27592e-13
2.82078e-12
3.51227e-11
2.07107e-10
1.23556e-46
-2.74824e-47
1.20157e-44
-9.13103e-35
6.93995e-33
5.81195e-28
2.57761e-25
2.31167e-24
6.58445e-24
1.04866e-23
1.2593e-23
1.16172e-23
5.1416e-23
1.36153e-21
3.38485e-20
7.80493e-19
1.6281e-17
3.22922e-16
6.48683e-15
1.21192e-13
2.0283e-12
3.40207e-11
1.94484e-10
5.7088e-46
-1.34757e-46
5.89209e-44
-1.13206e-48
6.3691e-35
8.29335e-32
6.05087e-28
4.43337e-26
2.12615e-25
3.84781e-25
4.60431e-25
7.25071e-25
1.23007e-23
3.90019e-22
1.05806e-20
2.6233e-19
5.93395e-18
1.26061e-16
2.64005e-15
5.43318e-14
1.30586e-12
2.80923e-11
1.69922e-10
6.97584e-46
-6.6021e-46
-2.66277e-43
-2.65101e-49
2.2881e-40
1.73246e-35
1.30939e-30
3.19018e-28
2.0121e-27
4.05542e-27
6.31436e-27
8.04458e-26
3.29236e-24
1.00492e-22
2.84648e-21
7.60601e-20
1.8478e-18
4.11186e-17
8.51006e-16
1.79094e-14
6.94652e-13
1.97846e-11
1.27064e-10
5.21372e-46
7.12893e-47
2.6233e-47
-1.03561e-43
8.55396e-40
8.56147e-37
4.01759e-35
1.20371e-32
9.06851e-31
1.22115e-29
4.22699e-28
2.16041e-26
7.14804e-25
2.29761e-23
6.92847e-22
1.96951e-20
5.12463e-19
1.17243e-17
2.15944e-16
3.78741e-15
2.81287e-13
1.12449e-11
8.1138e-11
5.96418e-47
1.55368e-47
9.78047e-48
1.62562e-46
2.99544e-40
1.89669e-37
1.88961e-35
7.34907e-34
3.73154e-32
2.11158e-30
9.81586e-29
3.67154e-27
1.38366e-25
4.88212e-24
1.58791e-22
4.71522e-21
1.28474e-19
2.97831e-18
4.91023e-17
7.45844e-16
8.00858e-14
5.11774e-12
4.54425e-11
2.54587e-48
1.38458e-48
1.40841e-49
1.45339e-47
2.69796e-41
1.64402e-38
1.44628e-36
9.9744e-35
5.74997e-33
2.89715e-31
1.36106e-29
5.98791e-28
2.40888e-26
8.89258e-25
3.06332e-23
9.71495e-22
2.80218e-20
7.02113e-19
1.57431e-17
3.69355e-16
1.80404e-14
1.87844e-12
2.16476e-11
9.79933e-50
6.59384e-50
4.3285e-50
-1.80409e-45
3.67612e-42
1.34079e-39
1.27154e-37
9.58375e-36
6.17298e-34
3.489e-32
1.79521e-30
8.74781e-29
3.88674e-27
1.58176e-25
6.31452e-24
2.29684e-22
7.6989e-21
2.4785e-19
7.18675e-18
1.7491e-16
4.96964e-15
5.48736e-13
8.48656e-12
2.16772e-51
1.68897e-51
1.62419e-51
6.18777e-49
4.09755e-43
8.95196e-41
9.336e-39
7.73106e-37
5.57131e-35
3.72104e-33
2.22342e-31
1.28453e-29
7.04497e-28
3.5843e-26
1.66331e-24
7.00082e-23
2.64968e-21
8.79524e-20
2.55705e-18
6.2832e-17
1.38341e-15
1.2406e-13
2.70555e-12
4.96901e-53
4.07127e-53
-1.7388e-50
6.1034e-50
1.67865e-44
4.54432e-42
5.32193e-40
5.24104e-38
4.78399e-36
3.92512e-34
2.93823e-32
2.02025e-30
1.26742e-28
7.20917e-27
3.67585e-25
1.66018e-23
6.57208e-22
2.26219e-20
6.73652e-19
1.7314e-17
3.52792e-16
2.65392e-14
6.61123e-13
6.5473e-55
8.6004e-55
7.35269e-54
-8.7227e-49
6.94081e-46
1.91132e-43
2.71687e-41
3.27862e-39
3.49737e-37
3.35727e-35
2.92048e-33
2.29873e-31
1.6249e-29
1.02066e-27
5.63391e-26
2.70636e-24
1.12303e-22
4.00679e-21
1.22658e-19
3.22224e-18
6.67449e-17
4.87517e-15
1.12856e-13
4.42976e-57
1.47571e-56
1.05674e-54
6.43799e-52
2.48641e-47
6.24842e-45
1.01468e-42
1.41925e-40
1.76233e-38
1.96169e-36
1.95815e-34
1.74261e-32
1.36943e-30
9.4033e-29
5.58846e-27
2.85368e-25
1.24603e-23
4.6418e-22
1.47521e-20
4.00727e-19
8.5688e-18
5.92312e-16
1.44593e-14
3.8405e-59
1.20249e-58
-9.21514e-54
3.79092e-53
4.22323e-49
1.24582e-46
2.31561e-44
3.76316e-42
5.44597e-40
7.03559e-38
8.06491e-36
8.13041e-34
7.13728e-32
5.39865e-30
3.493e-28
1.92332e-26
8.98576e-25
3.55916e-23
1.19654e-21
3.42538e-20
7.71757e-19
5.42931e-17
1.43691e-15
3.35846e-61
6.61225e-60
2.17787e-57
-8.97483e-53
3.13567e-51
1.14144e-48
2.47512e-46
4.81654e-44
8.38985e-42
1.29688e-39
1.76012e-37
2.07414e-35
2.09708e-33
1.80419e-31
1.31153e-29
8.0329e-28
4.14117e-26
1.79848e-24
6.5938e-23
2.04716e-21
5.01429e-20
4.11705e-18
1.10629e-16
9.45192e-64
1.74764e-61
2.1877e-59
3.17139e-57
3.62568e-54
2.03669e-51
5.44711e-49
1.366e-46
3.12562e-44
6.35407e-42
1.12094e-39
1.68441e-37
2.13561e-35
2.27092e-33
2.01186e-31
1.48559e-29
9.00356e-28
4.49398e-26
1.85624e-24
6.41906e-23
1.84263e-21
2.28099e-19
6.32764e-18
2.94857e-67
2.95743e-65
-5.20294e-60
1.18665e-60
-1.21419e-57
3.38192e-55
1.18637e-52
3.99646e-50
1.25594e-47
3.54408e-45
8.7102e-43
1.828e-40
3.25009e-38
4.89219e-36
5.99417e-34
5.97312e-32
4.84499e-30
3.20602e-28
1.73699e-26
7.74579e-25
2.86316e-23
9.84883e-21
2.43954e-19
7.77036e-73
5.74761e-71
7.74156e-69
-2.33323e-61
-2.35993e-63
5.09351e-61
4.89232e-58
2.62974e-55
1.34952e-52
6.29623e-50
2.58319e-47
9.08418e-45
2.74472e-42
6.8378e-40
1.37968e-37
2.2383e-35
2.9071e-33
3.07976e-31
2.65654e-29
1.87212e-27
1.06707e-25
3.01566e-22
4.95682e-21
3.09029e-85
3.28392e-83
2.91868e-81
-4.05819e-69
-1.08476e-71
-2.1939e-66
-6.81884e-67
-2.74159e-64
-1.35365e-61
-7.06642e-59
-3.29744e-56
-9.69656e-54
2.49754e-51
-2.49164e-47
-6.38064e-42
-5.05345e-39
-1.02733e-36
-1.16364e-34
-6.42771e-33
-2.55443e-32
-6.02062e-29
1.61396e-24
3.73662e-23
1.09453e-101
0
-6.41154e-82
-3.34658e-86
-3.36778e-78
-2.27127e-78
-5.1177e-79
7.20613e-74
1.98386e-67
-9.51942e-70
-1.58425e-66
-2.57091e-63
-5.23095e-56
-1.02227e-51
-1.3389e-48
-1.04275e-45
-5.56323e-43
-2.07884e-40
-5.24418e-38
-7.51196e-36
-2.78162e-33
9.06517e-30
1.68411e-28
0.99552
0.995525
0.996785
0.999288
0.999864
0.996094
0.997593
0.999522
0.999989
0.999741
0.999981
0.999928
0.99998
0.999979
0.999969
0.999953
0.99998
0.999969
0.999953
0.999945
0.451126
0.480592
0.607182
0.907522
0.000996096
0.00221505
0.0101952
0.0396869
3.71901e-08
-3.86349e-07
-3.47091e-13
1.85353e-06
2.70697e-06
-4.73628e-14
7.55867e-08
-3.47583e-07
8.40691e-10
3.32712e-08
4.2093e-09
8.54987e-09
1.59838e-10
1.77388e-10
2.08771e-10
1.5364e-10
1.58946e-10
1.73517e-10
1.97684e-10
2.34917e-10
2.0957e-10
2.33012e-10
2.75692e-10
4.34108e-10
1.32584e-10
1.90077e-10
2.9534e-10
4.88355e-10
1.61264e-10
3.6667e-10
6.16872e-10
6.16872e-10
2.59141e-10
4.79289e-10
6.12992e-10
6.16869e-10
3.26298e-10
4.31867e-10
4.62908e-10
4.52885e-10
3.31059e-10
3.47884e-10
3.35847e-10
3.43181e-10
2.95227e-10
2.91376e-10
2.76593e-10
2.9852e-10
2.63682e-10
2.59671e-10
4.07538e-10
4.47085e-10
2.32968e-10
2.29561e-10
2.6872e-10
1.00867e-08
2.18949e-10
2.75863e-10
1.41593e-09
1.7456e-08
2.07343e-10
9.13821e-10
5.16626e-09
2.46819e-08
2.16736e-10
1.59383e-09
8.3796e-09
2.84712e-08
2.99861e-10
2.18198e-09
9.83688e-09
1.29784e-08
3.30248e-10
1.83836e-09
4.48994e-09
7.27333e-09
2.72321e-10
1.10688e-09
3.2226e-09
7.98893e-09
1.82939e-10
8.24306e-10
2.54389e-09
4.81331e-09
1.1392e-10
5.19029e-10
1.59328e-09
3.26106e-09
5.89479e-11
2.73385e-10
9.63864e-10
2.5257e-09
2.50013e-11
1.26868e-10
5.34522e-10
1.6084e-09
8.6799e-12
5.05324e-11
2.50746e-10
7.66455e-10
2.30768e-12
1.66064e-11
8.93873e-11
2.6778e-10
4.68501e-13
4.44879e-12
1.99431e-11
5.14288e-11
6.39378e-14
8.43653e-13
3.35569e-12
6.68053e-12
6.45039e-15
1.02556e-13
4.13526e-13
7.73232e-13
4.59629e-16
9.31194e-15
4.14998e-14
7.47669e-14
2.21491e-17
5.91465e-16
3.25178e-15
6.21126e-15
5.59209e-19
2.31586e-17
1.76936e-16
3.46866e-16
5.69308e-21
3.523e-19
5.07283e-18
1.17249e-17
3.4473e-24
4.56151e-22
1.42241e-20
6.36636e-20
0
-2.15228e-27
0
-7.67575e-22
0.202198
-1.13033e-08
-9.02244e-08
6.12043e-07
6.57078e-07
3.45512e-06
1.90007e-06
1.18946e-06
5.36761e-07
1.5979e-07
3.07757e-08
3.62089e-09
2.48765e-10
1.3007e-11
5.92301e-13
2.99825e-14
1.26219e-15
2.61346e-17
6.34983e-19
0.97873
0.844912
0.30984
0.0020064
-4.93629e-06
2.95548e-05
1.36557e-05
9.26109e-06
4.29635e-06
1.34188e-06
2.91154e-07
4.23895e-08
3.74548e-09
2.03309e-10
3.27207e-12
-4.25868e-13
-1.92095e-15
8.91342e-16
1.54768e-17
0.999872
0.999698
0.979801
0.90422
0.507233
0.0586309
0.000697288
0.00083209
0.000224348
1.78958e-05
5.06412e-06
8.79757e-07
9.38305e-08
5.47152e-09
1.70419e-10
-9.24147e-12
-1.19572e-12
-2.88177e-14
-1.27029e-15
0.999951
0.999921
0.99987
0.999782
0.99571
0.920477
0.478209
0.0472008
0.00107089
0.000660774
0.000119081
1.11942e-05
1.51447e-06
1.10541e-07
4.89864e-09
-1.36834e-10
-4.20052e-11
-4.60412e-12
-2.15891e-13
0.999927
0.999912
0.999904
0.999869
0.999751
0.999488
0.991848
0.748837
0.175748
0.00314391
0.000651678
0.000174014
1.71763e-05
1.95643e-06
1.63226e-07
8.42618e-09
1.6672e-11
-8.92667e-11
-4.91249e-12
0.999358
0.999904
0.999869
0.999778
0.999528
0.999446
0.999355
0.998838
0.79393
0.206126
0.00602342
0.0012078
0.000212621
3.25924e-05
4.27601e-06
4.47514e-07
3.45718e-08
-4.79306e-10
7.71324e-11
0.0996539
0.205203
0.503407
0.89567
0.996654
0.999356
0.998837
0.997292
0.996145
0.717162
0.127143
0.00641669
0.00135368
0.000253427
3.88992e-05
4.28255e-06
2.79366e-07
5.1413e-10
2.35066e-09
2.52021e-06
9.66198e-05
0.00974715
0.0286125
0.088892
0.443416
0.931837
0.996145
0.987682
0.955274
0.504665
0.0322879
0.00385026
0.000778348
0.000130045
1.60706e-05
1.19615e-06
2.23439e-08
2.02561e-08
1.86159e-08
5.27033e-09
-5.59285e-16
7.45918e-31
-3.03261e-24
-1.18752e-21
0.113538
0.695647
0.979242
0.959073
0.762347
0.171588
0.00752692
0.00159116
0.000283514
3.83374e-05
3.17035e-06
1.04178e-07
9.7819e-08
5.46344e-09
-4.71227e-13
-1.21459e-07
-7.38048e-08
-3.23291e-08
-9.05018e-09
-1.77462e-06
0.14914
0.792005
0.938905
0.854239
0.312486
0.0115553
0.00249626
0.000463318
6.62297e-05
5.9479e-06
3.27259e-07
3.00219e-07
5.34685e-11
-2.41597e-13
-3.17171e-09
-3.05548e-09
-1.50166e-09
-1.37674e-09
-2.80842e-08
1.14729e-05
0.430069
0.895628
0.834247
0.426751
0.0321102
0.00322357
0.000618761
9.40396e-05
9.37128e-06
7.73499e-07
6.49599e-07
3.6901e-10
5.02716e-10
7.50159e-10
3.95057e-10
3.07574e-12
-6.14471e-09
-3.14168e-12
3.44832e-07
0.175407
0.780478
0.789214
0.540243
0.0606057
0.00397064
0.00075656
0.000111112
1.141e-05
1.20075e-06
1.0725e-06
4.25595e-10
4.48922e-10
1.06848e-08
1.23193e-08
-3.46621e-11
-3.83613e-14
3.76586e-10
1.85406e-08
0.071925
0.647442
0.770822
0.54369
0.0729002
0.00418768
0.000772785
0.000110356
1.08922e-05
1.21408e-06
1.2751e-06
4.73827e-10
4.84342e-10
5.16465e-10
1.38812e-06
1.44936e-06
3.20917e-07
4.07747e-08
1.40859e-07
0.0272703
0.540501
0.72883
0.499182
0.0644929
0.00368201
0.000662896
9.43392e-05
9.19868e-06
1.06691e-06
8.04274e-07
5.57642e-10
5.16465e-10
5.44935e-10
6.88529e-07
3.71907e-06
1.22057e-06
1.4068e-07
3.87913e-07
0.0187739
0.467987
0.681167
0.409958
0.0349774
0.00280921
0.00052493
7.71094e-05
6.60668e-06
8.09064e-07
5.23731e-07
5.35703e-10
5.4469e-10
5.89292e-10
2.77216e-07
5.55798e-06
2.36166e-06
3.87914e-07
7.2729e-07
0.0279273
0.45375
0.637301
0.290571
0.0139245
0.0019596
0.000389069
5.34293e-05
6.32931e-06
7.69183e-07
3.20312e-07
4.4509e-10
4.91217e-10
6.01861e-10
4.47486e-06
6.04586e-06
3.67729e-06
7.27512e-07
8.7936e-07
0.0872773
0.46904
0.577893
0.237037
0.00898977
0.00126074
0.000231925
3.68945e-05
6.52422e-06
7.09474e-07
1.88689e-07
3.82405e-10
5.51443e-10
8.47183e-07
6.62712e-06
6.17743e-06
3.49769e-06
1.15886e-06
-1.95686e-05
0.309703
0.488352
0.517629
0.202052
0.00551523
0.000904508
0.000138895
3.64652e-05
6.77687e-06
7.05174e-07
1.11384e-07
5.34026e-10
1.15325e-09
3.90358e-07
6.86799e-06
6.7582e-06
2.32081e-06
1.55815e-06
1.47618e-06
0.35452
0.474235
0.44032
0.125049
0.00338274
0.000610566
0.000146999
3.81699e-05
5.81396e-06
5.62934e-07
6.6238e-08
1.3031e-09
3.59304e-09
3.79522e-06
7.50847e-06
5.65134e-06
1.86079e-06
1.76009e-06
1.7628e-06
0.191785
0.29341
0.175241
0.0465865
0.00299894
0.000550118
0.000164739
3.46622e-05
4.31986e-06
4.11449e-07
3.93446e-08
4.48466e-09
1.23842e-08
6.97599e-06
7.35937e-06
6.02594e-06
2.57726e-06
0.00220333
0.00232068
0.024345
0.0223302
0.00718272
0.0108302
0.00578098
0.000639004
0.000146961
2.31047e-05
2.82377e-06
2.69499e-07
2.39233e-08
7.40191e-08
3.79431e-08
4.93476e-06
5.12736e-06
4.78635e-06
2.99876e-06
0.0236846
0.137749
0.042012
0.00706925
0.0039284
0.00191792
0.00296279
0.000739651
9.42264e-05
1.42158e-05
1.7278e-06
1.63843e-07
1.40202e-08
1.51117e-07
1.34146e-07
1.1325e-06
1.36574e-05
4.81958e-06
4.77198e-06
0.128959
0.198382
0.163773
0.0189121
0.00192482
0.00108357
0.000468376
0.000523201
6.64423e-05
7.93132e-06
9.89598e-07
9.48401e-08
8.03328e-09
1.30704e-07
1.28166e-07
7.30668e-07
2.76686e-05
5.39179e-06
6.76828e-06
0.174866
0.20447
0.211594
0.0475973
0.00116667
0.000495543
0.000178926
6.95792e-05
4.50786e-05
4.65756e-06
5.09078e-07
5.21151e-08
4.51744e-09
3.4919e-08
1.36803e-07
1.18241e-06
2.80145e-05
1.28337e-05
1.38735e-05
0.118484
0.2106
0.21098
0.16766
0.00845705
0.000312462
6.6309e-05
1.92794e-05
7.20191e-06
2.66055e-06
2.72639e-07
2.74046e-08
2.53612e-09
4.12364e-08
1.88268e-07
2.06403e-07
7.6373e-06
0.000112681
5.65406e-05
0.0054531
0.21142
0.212605
0.213042
0.0322577
0.000378982
3.72777e-05
5.7935e-06
-1.5023e-07
6.22767e-07
1.65075e-07
1.53171e-08
1.46479e-09
3.71001e-08
5.55228e-08
1.82597e-07
4.41702e-06
0.000101494
8.59219e-05
0.000110919
0.168839
0.211666
0.213022
0.119603
0.0024677
-2.37298e-05
6.99807e-06
1.04552e-06
7.32057e-08
7.89376e-08
9.82471e-09
9.05469e-10
1.57877e-08
4.65926e-08
4.22455e-07
6.16862e-07
3.83958e-05
0.000682717
0.000415985
0.0382513
0.212027
0.212135
0.213046
0.0312426
0.000160166
4.32445e-06
7.69905e-07
1.68806e-07
4.28223e-08
6.71552e-09
5.83331e-10
1.18117e-08
4.01032e-08
2.58768e-07
7.60022e-07
3.1398e-06
0.000337148
0.00168482
0.00186214
0.157894
0.212074
0.209898
0.0468565
0.000189182
7.94984e-05
6.33165e-06
3.00765e-07
4.04616e-08
4.46234e-09
3.33356e-10
9.645e-09
3.14396e-08
1.93287e-07
1.42807e-06
5.17721e-06
2.52527e-05
0.00183886
0.0043818
0.0239867
0.160881
0.132756
0.0294556
0.00097158
5.65628e-05
5.59679e-06
3.11925e-07
2.79542e-08
2.2064e-09
1.66969e-10
6.43309e-09
2.06182e-08
1.44294e-07
1.04126e-06
5.64283e-06
2.58999e-05
0.000751817
0.00303448
0.00402363
0.0170884
0.0113178
0.00649691
0.000561989
-1.53784e-06
-8.11594e-10
4.57287e-09
2.4841e-09
8.85735e-10
8.93412e-11
3.05817e-09
1.1933e-08
8.21449e-08
5.63722e-07
3.35305e-06
1.72831e-05
0.00010164
0.00177424
0.00276215
0.00153819
0.00134152
0.0001026
8.64976e-07
-1.27649e-06
-6.04075e-08
1.64491e-09
5.46986e-10
3.8116e-10
4.82096e-11
1.23441e-09
5.5734e-09
3.98899e-08
2.76627e-07
1.65406e-06
8.47227e-06
6.62364e-05
0.000680735
0.000817476
0.000461522
0.000412286
4.72392e-05
1.40741e-06
-2.21446e-07
-1.58823e-08
6.67957e-10
3.03735e-10
2.06779e-10
2.5235e-11
2.49124e-10
1.42205e-09
1.06681e-08
7.52742e-08
4.54133e-07
2.12782e-06
2.69929e-05
0.000159307
0.000149806
0.000128968
0.000124123
1.93173e-05
8.30066e-07
-6.58286e-08
-2.71201e-09
3.54494e-10
1.6511e-10
1.24011e-10
1.24348e-11
3.3856e-11
2.30289e-10
1.907e-09
1.3884e-08
7.8052e-08
3.75905e-07
5.35301e-06
2.80503e-05
3.05058e-05
3.42537e-05
3.60913e-05
7.13395e-06
4.22037e-07
-1.37522e-08
-2.70545e-10
2.08071e-10
9.38946e-11
7.01437e-11
5.75603e-12
4.35357e-12
2.91955e-11
2.56483e-10
2.05367e-09
1.29031e-08
6.86981e-08
7.72443e-07
3.59527e-06
6.34354e-06
8.95132e-06
9.931e-06
2.42701e-06
1.83332e-07
-5.79291e-10
2.31093e-10
1.42048e-10
6.99849e-11
3.52335e-11
2.5199e-12
5.60148e-13
4.83314e-12
3.55596e-11
3.0306e-10
2.11948e-09
1.40981e-08
8.6901e-08
3.17904e-07
1.0864e-06
2.20259e-06
2.57935e-06
7.74514e-07
6.98947e-08
1.53754e-09
2.20956e-10
8.48284e-11
5.73202e-11
1.64783e-11
1.05184e-12
5.32844e-14
6.29105e-13
7.42934e-12
5.78074e-11
3.92621e-10
2.80034e-09
1.29192e-08
5.86504e-08
2.12138e-07
5.24976e-07
6.51528e-07
2.37649e-07
2.42496e-08
1.01354e-09
1.317e-10
4.59738e-11
3.42477e-11
7.38544e-12
4.21334e-13
3.5378e-15
6.12385e-14
1.38306e-12
1.51504e-11
8.45984e-11
3.86351e-10
2.26662e-09
1.21249e-08
4.5608e-08
1.19167e-07
1.61747e-07
6.73198e-08
8.12772e-09
4.58037e-10
6.51046e-11
2.64934e-11
1.42287e-11
3.18508e-12
1.64226e-13
1.71523e-16
3.8752e-15
1.16141e-13
2.47677e-12
1.95267e-11
5.36152e-11
3.68195e-10
2.37772e-09
1.04301e-08
2.90124e-08
4.42543e-08
2.08645e-08
2.52546e-09
2.12545e-10
3.59532e-11
1.84172e-11
5.65548e-12
1.32121e-12
5.03799e-14
3.39958e-18
1.59665e-16
7.48432e-15
2.02538e-13
2.18831e-12
1.09205e-11
6.00364e-11
4.20436e-10
2.41663e-09
7.75542e-09
1.49521e-08
6.17324e-09
8.44764e-10
9.3951e-11
2.82093e-11
9.95509e-12
2.29965e-12
5.51604e-13
1.69096e-14
-4.64352e-22
3.56384e-20
1.7018e-16
1.76803e-14
1.30801e-13
1.12627e-12
9.10441e-12
7.38776e-11
5.15384e-10
2.90545e-09
7.29898e-09
1.75701e-09
2.69413e-10
3.38986e-11
1.3418e-11
2.0598e-12
5.26625e-13
1.3115e-13
1.69096e-14
)
;

boundaryField
{
    leftWall
    {
        type            zeroGradient;
    }
    rightWall
    {
        type            zeroGradient;
    }
    lowerWall
    {
        type            zeroGradient;
    }
    atmosphere
    {
        type            inletOutlet;
        inletValue      uniform 0;
        value           nonuniform List<scalar> 
46
(
0
0
0
0
0
0
0
0
0
0
0
0
0
0
0
0
0
0
0
0
0
0
0
0
0
0
0
0
0
0
1.76803e-14
1.30801e-13
1.12627e-12
9.10441e-12
7.38776e-11
5.15384e-10
2.90545e-09
7.29898e-09
1.75701e-09
2.69413e-10
3.38986e-11
1.3418e-11
2.0598e-12
5.26625e-13
1.3115e-13
1.69096e-14
)
;
    }
    defaultFaces
    {
        type            empty;
    }
}


// ************************************************************************* //
