/*--------------------------------*- C++ -*----------------------------------*\
| =========                 |                                                 |
| \\      /  F ield         | OpenFOAM: The Open Source CFD Toolbox           |
|  \\    /   O peration     | Version:  v2012                                 |
|   \\  /    A nd           | Website:  www.openfoam.com                      |
|    \\/     M anipulation  |                                                 |
\*---------------------------------------------------------------------------*/
FoamFile
{
    version     2.0;
    format      ascii;
    class       volScalarField;
    location    "0.35";
    object      epsilon;
}
// * * * * * * * * * * * * * * * * * * * * * * * * * * * * * * * * * * * * * //

dimensions      [0 2 -3 0 0 0 0];


internalField   nonuniform List<scalar> 
2268
(
0.0423493
0.140054
0.274771
0.405182
0.521643
0.63005
0.735281
0.839976
0.944698
1.04822
1.14779
1.23944
1.31822
1.37819
1.41211
1.40791
1.37891
1.31397
1.21
1.07463
0.917881
0.728939
0.487411
0.0513132
0.0919527
0.149383
0.20033
0.244055
0.283992
0.322331
0.360383
0.398616
0.436796
0.474166
0.50962
0.541881
0.569712
0.592239
0.609435
0.634414
0.668156
0.716213
0.78435
0.857742
0.781206
0.616182
0.0642591
0.094179
0.134799
0.170295
0.200418
0.227232
0.252476
0.27724
0.301977
0.326629
0.350795
0.373888
0.395312
0.414712
0.432354
0.44997
0.474556
0.512557
0.573846
0.670926
0.800133
0.843785
1.05019
0.0794905
0.102317
0.134369
0.162426
0.186313
0.207502
0.227349
0.246708
0.265932
0.284985
0.303589
0.321365
0.338016
0.353576
0.368802
0.385932
0.41048
0.449648
0.513667
0.615255
0.757544
0.899007
1.56841
0.0939065
0.111971
0.137705
0.160279
0.1799
0.197647
0.214466
0.230924
0.247222
0.263285
0.278883
0.293761
0.307811
0.32131
0.335307
0.352261
0.377197
0.417391
0.483029
0.586714
0.736992
0.960852
2.01379
0.105635
0.120861
0.14152
0.159599
0.175883
0.191176
0.206036
0.220731
0.235286
0.249566
0.26336
0.276502
0.289018
0.301367
0.314787
0.331858
0.357375
0.39857
0.465797
0.572719
0.735345
1.03921
2.47851
0.114629
0.127777
0.144308
0.158742
0.172396
0.185877
0.199401
0.212964
0.226426
0.239585
0.252244
0.264303
0.275898
0.287623
0.300849
0.318217
0.344371
0.386451
0.455169
0.566257
0.746536
1.13681
3.0059
0.120925
0.13247
0.145506
0.157043
0.168697
0.180877
0.193503
0.206338
0.219101
0.23154
0.24347
0.254849
0.265904
0.27733
0.290592
0.308351
0.335107
0.377835
0.447584
0.562344
0.761303
1.23831
3.71108
0.0739166
0.254742
0.378433
0.475913
0.560275
0.603523
0.606471
0.579214
0.531354
0.480262
0.421153
0.360362
0.303267
0.255971
0.216201
0.17754
0.135852
0.0872842
0.0308741
0.135856
0.199169
0.228086
0.243108
0.260143
0.268126
0.263944
0.249154
0.225351
0.199997
0.175303
0.15309
0.134598
0.120964
0.110108
0.098717
0.0840032
0.0636173
0.0414261
0.234878
0.208893
0.217385
0.225355
0.235045
0.236944
0.229045
0.212491
0.188741
0.164315
0.141946
0.12308
0.108522
0.0984477
0.0913796
0.0847433
0.0760218
0.063679
0.0604097
0.336484
0.239978
0.242575
0.251667
0.259562
0.257044
0.243565
0.221307
0.19255
0.164472
0.139479
0.118938
0.10349
0.0930731
0.0864036
0.0811586
0.0750077
0.0670974
0.0776231
0.442132
0.291538
0.296285
0.310819
0.317401
0.307909
0.284849
0.252566
0.214838
0.179924
0.14954
0.124951
0.106585
0.0941948
0.0865067
0.0812775
0.0763215
0.071359
0.0934431
0.56363
0.380541
0.396361
0.419231
0.419422
0.395462
0.354971
0.305765
0.254007
0.208182
0.16928
0.138298
0.115265
0.099608
0.0898455
0.0836562
0.0789569
0.0759652
0.108328
0.831696
0.569598
0.606925
0.624761
0.594816
0.538913
0.465572
0.388014
0.314366
0.251449
0.199578
0.159095
0.129268
0.108936
0.0960865
0.0880594
0.0827961
0.080956
0.122793
2.45898
1.02994
1.08878
1.02233
0.888127
0.769102
0.635218
0.511951
0.403975
0.314431
0.242905
0.188465
0.148971
0.122267
0.105305
0.0946095
0.0880252
0.0866268
0.137508
0.126461
0.135846
0.145002
0.153574
0.163207
0.174077
0.185802
0.197894
0.209934
0.221616
0.23278
0.243455
0.253966
0.26512
0.278463
0.296642
0.323959
0.367117
0.437112
0.553854
0.764459
1.22498
2.44156
0.13095
0.136591
0.140505
0.145953
0.154038
0.164217
0.175572
0.187337
0.198983
0.210209
0.220914
0.231209
0.241502
0.252655
0.266195
0.284586
0.311619
0.353194
0.418442
0.52363
0.701801
1.03264
1.70914
0.133526
0.13534
0.134336
0.137465
0.144938
0.15508
0.166437
0.178095
0.189534
0.200515
0.211001
0.221155
0.231419
0.242643
0.256272
0.274517
0.300553
0.339085
0.396968
0.485382
0.623454
0.846899
1.20954
0.133699
0.132488
0.127993
0.130217
0.137922
0.148302
0.159685
0.171228
0.18251
0.193365
0.203786
0.213946
0.224282
0.235633
0.24944
0.267826
0.293421
0.32982
0.381845
0.456169
0.561871
0.71205
0.915124
0.133135
0.127996
0.124396
0.126753
0.134772
0.145227
0.156555
0.168032
0.179321
0.190282
0.200884
0.211263
0.221831
0.23344
0.247761
0.267135
0.293868
0.331147
0.382326
0.450249
0.535192
0.641655
0.771436
0.165541
0.140696
0.131625
0.131817
0.138182
0.147776
0.158669
0.169941
0.181196
0.192248
0.203041
0.213698
0.224617
0.236673
0.251491
0.270676
0.29663
0.333017
0.38488
0.460377
0.547611
0.642775
0.740234
0.441734
0.273044
0.246829
0.23099
0.218265
0.216307
0.220842
0.229207
0.24041
0.25399
0.269929
0.288464
0.309942
0.334809
0.363088
0.394512
0.429349
0.468122
0.508517
0.520402
0.558977
0.645466
0.740585
0.643405
0.368052
0.330602
0.287364
0.261457
0.251671
0.251605
0.257206
0.266582
0.278933
0.294065
0.312154
0.333589
0.358888
0.388572
0.423134
0.463473
0.510244
0.560567
0.614416
0.678127
0.756164
0.841429
0.63509
0.35434
0.322776
0.293933
0.27578
0.268687
0.269562
0.275553
0.284952
0.296953
0.311351
0.328376
0.348593
0.372811
0.401994
0.43716
0.479437
0.529689
0.586885
0.647044
0.705278
0.768539
0.844756
0.611541
0.333799
0.293694
0.275995
0.267913
0.267103
0.271711
0.280055
0.290975
0.303884
0.318684
0.33572
0.355728
0.379771
0.409143
0.445218
0.489292
0.542188
0.60335
0.669384
0.735375
0.802505
0.876527
0.622486
0.322609
0.270427
0.2555
0.252904
0.256722
0.264634
0.275276
0.287795
0.301792
0.317296
0.334765
0.355072
0.379469
0.409498
0.446834
0.493053
0.549258
0.6154
0.689287
0.767232
0.847818
0.931945
0.645356
0.316035
0.253739
0.238101
0.237345
0.243293
0.25294
0.264825
0.278165
0.292649
0.308389
0.325924
0.346219
0.370645
0.400907
0.438905
0.486521
0.545277
0.615817
0.697285
0.787604
0.88486
0.986563
0.669389
0.310141
0.241056
0.22389
0.223099
0.229405
0.239356
0.251335
0.264532
0.278655
0.293854
0.31071
0.330234
0.353845
0.383319
0.420671
0.467981
0.527125
0.599407
0.685166
0.783764
0.893626
1.01054
0.687898
0.30309
0.230421
0.21196
0.210423
0.216147
0.225483
0.236716
0.249002
0.262046
0.276007
0.29148
0.30948
0.331422
0.359076
0.394466
0.439743
0.496998
0.568011
0.65398
0.755335
0.871115
0.996662
0.697469
0.294395
0.220708
0.201496
0.199103
0.203879
0.212147
0.222168
0.233089
0.244612
0.256897
0.27053
0.286505
0.306197
0.331315
0.363823
0.405852
0.45958
0.527093
0.61019
0.710137
0.826746
0.955688
0.696944
0.284167
0.211301
0.191892
0.188794
0.192578
0.199644
0.208288
0.217671
0.227502
0.237938
0.249547
0.263282
0.280454
0.302681
0.33183
0.369965
0.419294
0.482127
0.560777
0.657315
0.772512
0.902798
0.686633
0.272641
0.201846
0.182713
0.179141
0.182044
0.187961
0.195256
0.203126
0.211296
0.219916
0.229527
0.241031
0.255657
0.274922
0.300584
0.33463
0.3793
0.437132
0.510975
0.603785
0.717469
0.849426
0.667694
0.260028
0.192149
0.173664
0.169852
0.172042
0.176951
0.183033
0.189533
0.196197
0.203165
0.210944
0.220373
0.232598
0.249028
0.271322
0.301411
0.341587
0.394658
0.464055
0.553696
0.666726
0.801593
0.641707
0.246529
0.182149
0.164591
0.160738
0.162388
0.166458
0.171508
0.176839
0.182215
0.187767
0.193959
0.201565
0.211641
0.225503
0.244723
0.271199
0.307309
0.356149
0.421756
0.50902
0.62234
0.761254
0.610442
0.232383
0.171915
0.155476
0.151728
0.152984
0.156378
0.160585
0.164963
0.169295
0.173695
0.178584
0.184667
0.192917
0.204562
0.221107
0.244438
0.277026
0.322254
0.384731
0.470271
0.584484
0.72805
0.575799
0.217946
0.161636
0.146411
0.142855
0.143825
0.146684
0.150219
0.15385
0.157372
0.160885
0.164763
0.169643
0.176418
0.186238
0.200552
0.221239
0.250859
0.293044
0.352905
0.437086
0.552338
0.700588
0.539749
0.203697
0.151583
0.137566
0.134229
0.134979
0.137408
0.140417
0.143478
0.146404
0.149274
0.152416
0.156402
0.162047
0.17043
0.182948
0.201466
0.228609
0.268203
0.325762
0.408641
0.524657
0.677148
0.504164
0.190148
0.142058
0.129152
0.126004
0.12656
0.12863
0.131223
0.13386
0.136367
0.138802
0.141449
0.144815
0.149645
0.156944
0.168053
0.184812
0.209874
0.247187
0.302565
0.383934
0.500098
0.655992
0.470646
0.177766
0.13334
0.121376
0.118346
0.1187
0.120452
0.122705
0.125028
0.12725
0.129415
0.131761
0.134736
0.139013
0.145524
0.155546
0.170874
0.194146
0.229362
0.282518
0.361971
0.477402
0.635495
0.440454
0.166922
0.125666
0.114425
0.111412
0.111532
0.112979
0.11494
0.117019
0.119053
0.121066
0.123255
0.126012
0.129939
0.135894
0.145079
0.159221
0.180902
0.2141
0.264879
0.341872
0.455498
0.614208
0.414521
0.157902
0.119225
0.108453
0.105335
0.105171
0.106305
0.107996
0.109873
0.111778
0.113714
0.115841
0.118497
0.122217
0.127782
0.136312
0.149442
0.169659
0.200847
0.249019
0.322932
0.433552
0.59084
0.39353
0.150922
0.114157
0.103574
0.100214
0.0997032
0.100505
0.101928
0.103622
0.105425
0.107322
0.10944
0.112064
0.115666
0.12095
0.128946
0.141181
0.16001
0.189155
0.234468
0.30463
0.410902
0.564212
0.37802
0.146161
0.110565
0.0998642
0.0961134
0.0951856
0.0956256
0.0967722
0.0982831
0.0999905
0.10186
0.103985
0.106607
0.110134
0.115197
0.122728
0.134128
0.151571
0.178529
0.220531
0.285951
0.386128
0.533065
0.368532
0.143798
0.108528
0.0973635
0.0930615
0.0916425
0.091688
0.0925434
0.0938621
0.0954649
0.0972969
0.0994231
0.10204
0.105501
0.110361
0.117451
0.128029
0.144056
0.16868
0.206969
0.266778
0.359239
0.497283
0.365736
0.144035
0.108109
0.0960815
0.0910526
0.0890664
0.0886857
0.0892347
0.0903487
0.0918309
0.0936061
0.0957113
0.0983044
0.101686
0.106339
0.112995
0.122762
0.137365
0.159576
0.193892
0.24743
0.330726
0.457116
0.370575
0.147129
0.109346
0.0959927
0.0900463
0.087419
0.0865865
0.0868187
0.0877172
0.0890622
0.0907573
0.0928139
0.0953554
0.0986351
0.103069
0.109292
0.118264
0.131471
0.151279
0.181542
0.228449
0.30151
0.413687
0.384393
0.153375
0.112246
0.0970278
0.0899649
0.0866324
0.0853341
0.0852484
0.0859273
0.0871219
0.0887148
0.0906947
0.0931554
0.0963076
0.100507
0.1063
0.11451
0.126385
0.143894
0.170213
0.210485
0.272835
0.369009
0.409056
0.163069
0.116744
0.0990579
0.0906879
0.0866082
0.08485
0.0844597
0.0849241
0.0859614
0.087434
0.089312
0.0916644
0.0946661
0.0986197
0.103993
0.111484
0.122129
0.137522
0.160184
0.194178
0.246034
0.32562
0.44704
0.176415
0.122655
0.101872
0.0920461
0.0872184
0.0850358
0.0843728
0.0846394
0.0855197
0.0868587
0.088613
0.0908328
0.093664
0.0973646
0.102335
0.109164
0.118707
0.132227
0.151654
0.18003
0.222255
0.285974
0.50147
0.193385
0.129605
0.105157
0.0938194
0.0883093
0.0857771
0.0848958
0.0849935
0.0857236
0.0869197
0.0885308
0.090595
0.0932365
0.0966777
0.101263
0.107493
0.116075
0.128
0.1447
0.16832
0.202249
0.251883
0.576023
0.213507
0.136961
0.108488
0.0957441
0.0897101
0.0869517
0.0859295
0.0858982
0.0864901
0.087536
0.0889843
0.0908678
0.0932963
0.0964656
0.100677
0.106362
0.114116
0.124725
0.139232
0.159052
0.186276
0.224241
0.674727
0.235676
0.143772
0.111338
0.0975344
0.0912509
0.0884397
0.0873742
0.0872608
0.087729
0.0886174
0.0898811
0.0915532
0.0937351
0.0966037
0.100429
0.105593
0.112614
0.12214
0.134946
0.151908
0.174081
0.203029
0.80179
0.257689
0.148732
0.113119
0.0989224
0.0927876
0.0901381
0.0891369
0.0889897
0.0893479
0.0900706
0.0911248
0.0925473
0.0944345
0.0969489
0.100336
0.104946
0.111246
0.119815
0.131279
0.146187
0.164856
0.187409
0.962039
0.275797
0.150192
0.113274
0.0997195
0.0942349
0.0919771
0.0911415
0.0910019
0.0912617
0.0918108
0.0926312
0.0937629
0.0952954
0.0973761
0.100227
0.104167
0.109636
0.117184
0.127404
0.14074
0.15713
0.175663
1.16332
0.2835
0.146265
0.111421
0.0998929
0.095596
0.0939304
0.0933347
0.0932318
0.0934041
0.093779
0.0943522
0.0951619
0.0962853
0.0978462
0.100033
0.103124
0.107515
0.113735
0.122406
0.134057
0.148664
0.164893
1.42353
0.268535
0.135147
0.107589
0.0996429
0.0969713
0.0960079
0.0956786
0.0956247
0.0957226
0.0959363
0.0962698
0.0967528
0.0974406
0.0984213
0.0998305
0.101874
0.104862
0.109236
0.115587
0.124557
0.13647
0.150399
1.78784
0.205946
0.116213
0.102674
0.0994934
0.0985593
0.0982477
0.0981457
0.0981311
0.0981655
0.0982401
0.098359
0.0985364
0.0987967
0.0991785
0.0997426
0.100584
0.10185
0.103772
0.106693
0.111077
0.117401
0.125612
5.27305
4.42604
3.51973
2.74946
2.30891
2.46488
2.44965
2.38546
1.45956
1.61909
1.70772
1.74071
1.05304
1.1639
1.25962
1.33232
0.859981
0.933225
1.00394
1.06824
0.801148
0.854349
0.907037
0.951884
0.801787
0.858149
0.914207
0.953237
0.893895
0.938324
0.966424
0.97351
0.900682
0.945548
0.984774
1.01819
0.93023
0.975875
1.01965
1.0581
0.989545
1.03853
1.08807
1.13592
1.05551
1.11387
1.17378
1.23362
1.09099
1.15914
1.23015
1.30307
1.08504
1.16012
1.23953
1.32323
1.04883
1.12815
1.2132
1.30491
0.999568
1.08203
1.17132
1.26917
0.950302
1.0359
1.12891
1.23141
0.9076
0.99655
1.09275
1.19815
0.873243
0.965412
1.06385
1.16995
0.846453
0.941301
1.04072
1.14515
0.825487
0.922298
1.02155
1.12252
0.80842
0.906576
1.00499
1.10173
0.793384
0.892512
0.990063
1.08282
0.77863
0.878685
0.976053
1.06616
0.762485
0.863742
0.962243
1.052
0.743196
0.846148
0.947334
1.03965
0.718032
0.823328
0.928512
1.02624
0.686564
0.793629
0.903154
1.0079
0.647471
0.754692
0.867709
0.979951
0.599933
0.704544
0.818589
0.93681
0.544576
0.642952
0.753974
0.87422
0.483873
0.572244
0.675287
0.791576
0.421819
0.497235
0.587735
0.693613
0.362879
0.423966
0.49904
0.589558
0.31076
0.357857
0.416871
0.489839
0.267629
0.302356
0.346586
0.402515
0.234027
0.258641
0.290445
0.331583
0.20918
0.226072
0.248155
0.277446
0.1912
0.202648
0.21766
0.238135
0.176781
0.184815
0.19519
0.209768
0.160162
0.166261
0.173926
0.18504
0.131725
0.135416
0.140019
0.147076
2.29242
2.15017
1.96608
1.86509
1.46126
1.2223
0.958656
0.750077
0.575017
0.435093
0.326644
0.245977
0.188362
0.149701
0.12466
0.108449
0.0986209
0.0969858
0.164014
2.26911
2.05513
1.88174
1.70912
1.53684
1.52384
1.54033
1.27277
0.969848
0.716187
0.521848
0.379531
0.279039
0.212198
0.16782
0.138033
0.119037
0.112899
0.198365
1.73229
1.68521
1.62864
1.54788
1.46165
1.38595
1.28384
1.32021
1.3343
1.09129
0.813839
0.592742
0.430506
0.319653
0.242964
0.189392
0.153409
0.137033
0.242272
1.40734
1.41268
1.39186
1.36265
1.32885
1.28564
1.2348
1.18722
1.14747
1.19797
1.07824
0.856747
0.651958
0.49167
0.368016
0.275608
0.21021
0.174589
0.300852
1.16493
1.21747
1.23243
1.22588
1.20987
1.18918
1.16286
1.12987
1.09616
1.07106
1.09473
1.03072
0.891931
0.721592
0.555111
0.411289
0.300405
0.232612
0.381054
1.02415
1.0848
1.11885
1.12919
1.12527
1.11389
1.09782
1.07672
1.05032
1.02517
1.01532
1.02623
1.01108
0.927203
0.777648
0.597826
0.431918
0.317844
0.489898
1.01159
1.0588
1.08383
1.08823
1.08332
1.07116
1.05522
1.03679
1.01484
0.990014
0.970411
0.972717
0.989398
1.00472
0.956948
0.803865
0.598466
0.431496
0.631033
1.01424
1.06175
1.09022
1.0947
1.09492
1.07287
1.04238
1.01578
0.991299
0.966088
0.942109
0.932121
0.949497
0.99641
1.04418
0.977665
0.773996
0.563558
0.800251
1.07891
1.14931
1.15942
1.13141
1.10662
1.07887
1.05003
1.00819
0.976235
0.948483
0.922135
0.903925
0.916395
0.975473
1.07792
1.0978
0.926661
0.693467
0.982949
1.11858
1.18162
1.24325
1.27751
1.28681
1.22965
1.04405
1.00553
0.964496
0.933428
0.905105
0.883603
0.89127
0.961275
1.10411
1.1822
1.03863
0.799032
1.15705
1.21452
1.27707
1.31519
1.33584
1.36025
1.35864
1.17859
1.00496
0.954022
0.919364
0.890003
0.866227
0.864283
0.949988
1.14147
1.25242
1.10688
0.86539
1.30052
1.3353
1.41169
1.44461
1.44225
1.43512
1.42118
1.29952
0.988511
0.943698
0.90577
0.874814
0.848369
0.843025
0.943341
1.19696
1.31364
1.13089
0.887041
1.39807
1.43141
1.53465
1.58259
1.57717
1.5498
1.51217
1.39384
1.01261
0.93277
0.892281
0.858838
0.830458
0.825279
0.958971
1.29186
1.36536
1.11179
0.867534
1.44471
1.47583
1.61267
1.69279
1.70696
1.67642
1.61358
1.47343
1.06371
0.920331
0.877681
0.842516
0.81359
0.813777
1.03008
1.45974
1.38855
1.05311
0.818382
1.44666
1.47734
1.64973
1.77442
1.827
1.80914
1.7189
1.53091
1.0875
0.903855
0.861549
0.825568
0.797724
0.812165
1.18203
1.64437
1.36733
0.973633
0.755282
1.41594
1.45689
1.66358
1.84272
1.95023
1.95523
1.8274
1.5571
1.05658
0.881052
0.840703
0.805351
0.780975
0.829062
1.39084
1.7859
1.30916
0.887265
0.688983
1.36453
1.42928
1.66614
1.9099
2.09077
2.12277
1.93192
1.52466
0.954148
0.853158
0.815672
0.780345
0.761376
0.852654
1.60624
1.8438
1.21791
0.798506
0.624272
1.30144
1.39993
1.65993
1.97859
2.25344
2.30421
2.01329
1.43861
0.863119
0.821651
0.788314
0.755416
0.747082
0.912437
1.87901
1.791
1.09619
0.709388
0.563105
1.23311
1.36877
1.64137
2.04003
2.43287
2.47174
2.03978
1.35025
0.83902
0.799256
0.767754
0.740852
0.762172
1.11607
2.07649
1.63858
0.962224
0.624205
0.506932
1.16443
1.33453
1.60771
2.07903
2.61141
2.58542
1.96103
1.22404
0.826769
0.791371
0.765037
0.745916
0.854543
1.4398
2.16207
1.45386
0.834956
0.547353
0.456944
1.09914
1.29812
1.56226
2.08118
2.77373
2.59421
1.58793
0.861336
0.812338
0.798924
0.788295
0.794797
1.01785
1.66949
2.05605
1.26781
0.721282
0.48072
0.413593
1.03965
1.26212
1.50855
2.03119
2.94637
2.48147
1.08937
0.794355
0.769061
0.7929
0.827264
0.876712
1.1582
1.84755
1.87657
1.09226
0.624228
0.424735
0.376736
0.98713
1.22909
1.44999
1.93809
3.05024
2.29938
0.890974
0.779069
0.750307
0.77001
0.805121
0.903223
1.32983
1.94798
1.7059
0.951376
0.548605
0.379728
0.346004
0.941798
1.20169
1.39495
1.81852
2.85509
3.03674
0.933004
0.781825
0.747167
0.748662
0.769979
0.854971
1.39808
2.05326
1.59917
0.86005
0.496421
0.34555
0.320784
0.902851
1.18189
1.35265
1.69429
2.53426
3.70286
1.10641
0.826747
0.766818
0.742098
0.749274
0.784771
1.21643
2.02712
1.56201
0.822853
0.466095
0.320921
0.300082
0.868299
1.16942
1.3273
1.58671
2.19252
3.35448
1.99225
0.891438
0.806542
0.753113
0.736156
0.754654
1.00948
1.81224
1.52619
0.818732
0.452268
0.303179
0.282482
0.835021
1.16143
1.31951
1.52058
1.92072
2.71453
3.12412
0.96436
0.863444
0.776223
0.732611
0.73978
0.849129
1.47212
1.43186
0.8119
0.443869
0.288419
0.266503
0.79937
1.15374
1.32619
1.49398
1.74674
2.23488
2.87108
1.4599
0.95069
0.804728
0.734364
0.724231
0.804882
1.24179
1.30489
0.771209
0.429227
0.273016
0.252378
0.760071
1.14019
1.34234
1.5085
1.66177
1.90257
2.27992
2.30922
1.05942
0.838031
0.734127
0.716684
0.82643
1.25
1.15675
0.710553
0.408784
0.256833
0.243016
0.718622
1.11197
1.35565
1.55585
1.67717
1.75256
1.8512
1.93366
1.56237
0.913762
0.738686
0.720858
0.962902
1.30429
1.0128
0.679023
0.394052
0.243419
0.237799
0.674667
1.06013
1.34744
1.60973
1.77354
1.79894
1.72832
1.64036
1.50226
1.0789
0.805244
0.821555
1.14424
1.25429
0.958502
0.682705
0.386509
0.234529
0.235808
0.628646
0.979149
1.29781
1.62791
1.88876
1.99144
1.89405
1.64015
1.3604
1.14429
1.01381
0.992139
1.16405
1.18737
1.04065
0.698009
0.385039
0.231498
0.236147
0.581681
0.871133
1.19648
1.57117
1.93352
2.1935
2.25639
2.07178
1.72781
1.44961
1.28106
1.19184
1.27549
1.35185
1.1342
0.701485
0.385765
0.234269
0.237829
0.535346
0.74654
1.05052
1.4272
1.8407
2.22752
2.50077
2.5727
2.41866
2.14582
1.89246
1.689
1.63999
1.53141
1.13299
0.681196
0.384017
0.240993
0.239613
0.491335
0.620181
0.88214
1.22111
1.61983
2.0398
2.41804
2.6749
2.73881
2.60692
2.36063
2.08626
1.8428
1.50796
1.04443
0.637176
0.376677
0.24843
0.240077
0.451091
0.505186
0.716727
0.996517
1.33667
1.7138
2.08315
2.37979
2.54705
2.53685
2.36204
2.07801
1.73719
1.33348
0.912
0.576771
0.362412
0.252937
0.237828
0.415529
0.409219
0.572117
0.789528
1.05734
1.35997
1.66582
1.93023
2.10868
2.14702
2.0312
1.78819
1.46508
1.10561
0.767698
0.50822
0.340838
0.25157
0.231855
0.384955
0.334426
0.455752
0.618054
0.81896
1.0467
1.27714
1.4888
1.63692
1.681
1.60282
1.41631
1.15997
0.881762
0.6298
0.437847
0.31257
0.242946
0.221867
0.359189
0.279351
0.367863
0.485574
0.631562
0.797024
0.965291
1.12015
1.22991
1.26553
1.21194
1.07712
0.889944
0.688632
0.508246
0.370466
0.279662
0.227705
0.208538
0.337786
0.240331
0.305635
0.389541
0.490898
0.605822
0.724037
0.832064
0.909659
0.936362
0.900636
0.807016
0.675659
0.534136
0.407133
0.309505
0.244816
0.207481
0.192755
0.320155
0.209735
0.262521
0.325274
0.388309
0.462555
0.539994
0.612457
0.666231
0.68674
0.665128
0.603287
0.514174
0.416592
0.327859
0.258856
0.213027
0.187047
0.177478
0.305972
0.164819
0.208029
0.267573
0.317217
0.366982
0.418317
0.467015
0.502866
0.515809
0.49997
0.456634
0.394418
0.325984
0.263242
0.214021
0.18132
0.163663
0.160731
0.294108
)
;

boundaryField
{
    leftWall
    {
        lowReCorrection 0;
        blending        stepwise;
        n               2;
        type            epsilonWallFunction;
        value           nonuniform List<scalar> 
50
(
0.0423493
0.0513132
0.0642591
0.0794905
0.0939065
0.105635
0.114629
0.120925
0.126461
0.13095
0.133526
0.133699
0.133135
0.165541
0.441734
0.643405
0.63509
0.611541
0.622486
0.645356
0.669389
0.687898
0.697469
0.696944
0.686633
0.667694
0.641707
0.610442
0.575799
0.539749
0.504164
0.470646
0.440454
0.414521
0.39353
0.37802
0.368532
0.365736
0.370575
0.384393
0.409056
0.44704
0.50147
0.576023
0.674727
0.80179
0.962039
1.16332
1.42353
1.78784
)
;
    }
    rightWall
    {
        lowReCorrection 0;
        blending        stepwise;
        n               2;
        type            epsilonWallFunction;
        value           nonuniform List<scalar> 
50
(
0.0308741
0.0414261
0.0604097
0.0776231
0.0934431
0.108328
0.122793
0.137508
0.164014
0.198365
0.242272
0.300852
0.381054
0.489898
0.631033
0.800251
0.982949
1.15705
1.30052
1.39807
1.44471
1.44666
1.41594
1.36453
1.30144
1.23311
1.16443
1.09914
1.03965
0.98713
0.941798
0.902851
0.868299
0.835021
0.79937
0.760071
0.718622
0.674667
0.628646
0.581681
0.535346
0.491335
0.451091
0.415529
0.384955
0.359189
0.337786
0.320155
0.305972
0.294108
)
;
    }
    lowerWall
    {
        lowReCorrection 0;
        blending        stepwise;
        n               2;
        type            epsilonWallFunction;
        value           nonuniform List<scalar> 
62
(
0.0423493
0.140054
0.274771
0.405182
0.521643
0.63005
0.735281
0.839976
0.944698
1.04822
1.14779
1.23944
1.31822
1.37819
1.41211
1.40791
1.37891
1.31397
1.21
1.07463
0.917881
0.728939
0.487411
0.487411
0.616182
1.05019
1.56841
2.01379
2.47851
3.0059
3.71108
5.27305
4.42604
3.51973
2.74946
0.0739166
0.135856
0.234878
0.336484
0.442132
0.56363
0.831696
2.45898
0.0739166
0.254742
0.378433
0.475913
0.560275
0.603523
0.606471
0.579214
0.531354
0.480262
0.421153
0.360362
0.303267
0.255971
0.216201
0.17754
0.135852
0.0872842
0.0308741
)
;
    }
    atmosphere
    {
        type            inletOutlet;
        inletValue      uniform 0.1;
        value           nonuniform List<scalar> 
46
(
0.1
0.1
0.1
0.1
0.1
0.1
0.1
0.1
0.1
0.1
0.1
0.1
0.1
0.1
0.1
0.1
0.1
0.1
0.1
0.1
0.1
0.1
0.1
0.1
0.1
0.1
0.1
0.1
0.1
0.1
0.1
0.366982
0.418317
0.467015
0.502866
0.515809
0.49997
0.456634
0.394418
0.325984
0.263242
0.214021
0.18132
0.163663
0.160731
0.294108
)
;
    }
    defaultFaces
    {
        type            empty;
    }
}


// ************************************************************************* //
