/*--------------------------------*- C++ -*----------------------------------*\
| =========                 |                                                 |
| \\      /  F ield         | OpenFOAM: The Open Source CFD Toolbox           |
|  \\    /   O peration     | Version:  v2012                                 |
|   \\  /    A nd           | Website:  www.openfoam.com                      |
|    \\/     M anipulation  |                                                 |
\*---------------------------------------------------------------------------*/
FoamFile
{
    version     2.0;
    format      ascii;
    class       volScalarField;
    location    "0.35";
    object      p;
}
// * * * * * * * * * * * * * * * * * * * * * * * * * * * * * * * * * * * * * //

dimensions      [1 -1 -2 0 0 0 0];


internalField   nonuniform List<scalar> 
2268
(
1012.69
1016.04
1026.55
1039.79
1051.04
1059.49
1065.38
1069.45
1072.44
1074.99
1077.7
1081.24
1086.46
1094.56
1107.3
1127.58
1157.82
1200.54
1254.8
1312.91
1360.71
1372.39
1412.8
952.946
954.246
963.317
974.698
984.703
992.459
998.065
1002.06
1005.08
1007.73
1010.64
1014.51
1020.26
1029.14
1042.88
1063.71
1095.58
1140.52
1199.06
1263.19
1315.5
1319.1
1356.18
892.451
894.04
901.15
910.146
918.283
924.771
929.594
933.121
935.873
938.416
941.377
945.509
951.779
961.492
976.397
998.729
1031.74
1077.8
1137.55
1203.66
1260.29
1270.04
1308.54
831.588
834.16
840.058
847.077
853.405
858.458
862.23
865.009
867.234
869.432
872.224
876.38
882.887
893.054
908.605
931.621
964.759
1010.25
1068.45
1133.16
1191.9
1216.63
1272.64
770.402
774.102
779.272
784.733
789.492
793.183
795.867
797.809
799.393
801.111
803.57
807.531
813.972
824.165
839.744
862.598
894.932
938.57
993.635
1055.26
1113.53
1154.24
1227.58
708.834
713.519
718.165
722.305
725.676
728.111
729.751
730.853
731.764
732.942
734.969
738.586
744.736
754.626
769.767
791.849
822.677
863.622
914.537
971.576
1025.92
1079.65
1161.53
646.908
652.357
656.497
659.397
661.491
662.773
663.43
663.722
663.961
664.572
666.11
669.282
674.98
684.325
698.686
719.553
748.35
785.979
831.84
882.304
927.884
986.742
1050.4
584.671
590.667
594.185
595.852
596.758
597.015
596.8
596.356
595.967
596.024
597.052
599.716
604.842
613.446
626.74
646.006
672.307
706.033
745.848
787.117
817.969
857.612
861.014
31.7904
31.7667
31.7597
31.763
31.7823
31.8107
31.8376
31.8532
31.8523
31.8311
31.7909
31.7361
31.6731
31.6086
31.548
31.4958
31.4559
31.4304
31.4197
31.7353
31.7097
31.7004
31.7002
31.7175
31.7445
31.7709
31.7863
31.7862
31.7662
31.7276
31.6745
31.6128
31.5491
31.4887
31.4365
31.3962
31.3702
31.359
31.6807
31.6458
31.6368
31.6345
31.651
31.6773
31.7038
31.7195
31.7203
31.7017
31.6646
31.613
31.5523
31.4887
31.4278
31.3746
31.3333
31.3064
31.2947
31.6259
31.5731
31.5681
31.5657
31.5837
31.6117
31.6399
31.6565
31.6585
31.6409
31.6041
31.5527
31.4915
31.4269
31.3643
31.3092
31.2661
31.2383
31.2267
31.5717
31.4904
31.4957
31.4938
31.5157
31.5478
31.5796
31.598
31.6017
31.5845
31.5471
31.4942
31.4308
31.3634
31.2979
31.24
31.1947
31.1659
31.1547
31.5199
31.3965
31.4204
31.4181
31.4462
31.4855
31.5225
31.5433
31.5494
31.5328
31.4939
31.438
31.3705
31.2986
31.2287
31.1671
31.119
31.0891
31.0784
31.4974
31.2948
31.3458
31.3386
31.3742
31.4221
31.4666
31.4912
31.5008
31.4851
31.4445
31.3845
31.3113
31.233
31.1571
31.0904
31.0387
31.0075
30.9973
31.3254
31.1799
31.2897
31.2745
31.3055
31.3515
31.4062
31.4366
31.4527
31.4396
31.3972
31.3325
31.2527
31.1666
31.0831
31.0099
30.9538
30.9209
30.9109
486.929
493.254
495.573
495.391
494.603
493.468
492.08
490.632
489.363
488.617
488.866
490.697
494.806
502.014
513.271
529.552
551.433
578.454
607.88
632.254
633.976
579.768
315.439
352.935
358.696
358.444
355.505
352.402
349.34
346.347
343.554
341.115
339.304
338.522
339.226
341.889
347.007
355.208
367.316
383.695
403.487
423.57
436.321
425.111
364.07
255.33
218.799
221.908
216.959
210.605
205.042
200.158
195.8
191.926
188.552
185.887
184.299
184.108
185.482
188.421
193.199
201.017
212.671
227.871
244.388
258.629
262.004
242.557
211.573
93.313
89.5938
79.3081
72.4443
67.6167
63.7413
60.4326
57.5342
54.9647
52.8816
51.5594
51.1311
51.4793
52.1234
52.8744
55.3179
60.3494
67.9461
79.384
94.932
109.898
109.84
93.1383
21.0059
11.4501
6.82614
5.85435
5.22664
4.70213
4.19931
3.6991
3.17713
2.7036
2.37145
2.21048
2.18001
2.10765
1.86455
2.05005
2.73241
3.55938
3.79546
5.56171
9.42806
9.61201
3.39682
-2.60736
-2.05418
-1.93405
-2.04341
-2.08652
-2.10425
-2.12682
-2.15094
-2.17219
-2.18985
-2.20494
-2.22125
-2.24714
-2.29788
-2.37696
-2.49767
-2.66682
-2.89431
-3.17862
-3.76085
-5.03581
-5.253
-3.7348
-2.2963
-2.25396
-2.21165
-2.1888
-2.16682
-2.15141
-2.14852
-2.15621
-2.17219
-2.1959
-2.22749
-2.26745
-2.3167
-2.37631
-2.44548
-2.52316
-2.6052
-2.67708
-2.71753
-2.8672
-3.3658
-4.0131
-4.31058
-2.46124
-2.41607
-2.37517
-2.35757
-2.35372
-2.35438
-2.36134
-2.37541
-2.39601
-2.4231
-2.45721
-2.49911
-2.54983
-2.61044
-2.68164
-2.76399
-2.85738
-2.95951
-3.06274
-3.17076
-3.31886
-3.50363
-3.6179
-2.60113
-2.56209
-2.54124
-2.53119
-2.53178
-2.53791
-2.54949
-2.56725
-2.59127
-2.62177
-2.65929
-2.70443
-2.75793
-2.82058
-2.89308
-2.97631
-3.07113
-3.17834
-3.2984
-3.43778
-3.61979
-3.83546
-4.0405
-2.75463
-2.72767
-2.7133
-2.70775
-2.71026
-2.71875
-2.7328
-2.75287
-2.77935
-2.81265
-2.85317
-2.90126
-2.95719
-3.02128
-3.09398
-3.17609
-3.26869
-3.37359
-3.49343
-3.63408
-3.80347
-3.9913
-4.17334
-2.91532
-2.89901
-2.88882
-2.88594
-2.89009
-2.90026
-2.91617
-2.93817
-2.96676
-3.00237
-3.04528
-3.09553
-3.15308
-3.21795
-3.29046
-3.37143
-3.46217
-3.56461
-3.68115
-3.81515
-3.9692
-4.13737
-4.30903
-3.07774
-3.06971
-3.06345
-3.06295
-3.06861
-3.08012
-3.09747
-3.12108
-3.15144
-3.18891
-3.2336
-3.28533
-3.34383
-3.40897
-3.48106
-3.561
-3.65019
-3.75038
-3.86354
-3.99159
-4.13553
-4.29196
-4.45518
-3.2403
-3.23805
-3.23488
-3.23641
-3.24341
-3.25605
-3.27463
-3.29961
-3.33147
-3.37045
-3.41649
-3.46922
-3.52821
-3.59331
-3.66492
-3.74404
-3.8321
-3.93069
-4.04129
-4.16507
-4.30243
-4.45118
-4.60775
-3.40089
-3.40229
-3.40152
-3.4048
-3.41303
-3.42675
-3.44645
-3.47269
-3.50589
-3.54617
-3.59329
-3.64674
-3.70602
-3.77103
-3.84232
-3.92104
-4.00862
-4.10644
-4.21558
-4.33676
-4.47024
-4.61472
-4.76798
-3.55805
-3.56144
-3.56255
-3.56735
-3.57678
-3.59156
-3.61237
-3.63981
-3.67425
-3.71571
-3.76379
-3.81786
-3.87743
-3.94252
-4.01389
-4.09284
-4.18077
-4.27885
-4.38781
-4.50815
-4.64033
-4.78376
-4.93722
-3.71075
-3.71498
-3.71766
-3.72382
-3.7344
-3.75025
-3.77217
-3.80078
-3.83644
-3.87901
-3.92799
-3.9827
-4.04272
-4.10825
-4.18025
-4.26015
-4.34933
-4.44871
-4.55879
-4.68004
-4.81328
-4.95864
-5.11557
-3.85836
-3.86278
-3.8668
-3.87417
-3.88585
-3.90276
-3.92579
-3.95559
-3.99243
-4.0361
-4.08597
-4.1414
-4.20208
-4.26844
-4.34166
-4.42325
-4.51449
-4.61609
-4.72842
-4.85212
-4.9885
-5.13834
-5.30158
-4.00063
-4.00492
-4.01006
-4.01849
-4.03119
-4.04914
-4.07328
-4.10427
-4.14229
-4.18701
-4.23779
-4.29401
-4.35554
-4.42308
-4.498
-4.58184
-4.67576
-4.78027
-4.89572
-5.02308
-5.16423
-5.32053
-5.49214
-4.13752
-4.14159
-4.1476
-4.15696
-4.1706
-4.18954
-4.21477
-4.2469
-4.28606
-4.33181
-4.38347
-4.44051
-4.50303
-4.57196
-4.64886
-4.73528
-4.83221
-4.94
-5.05909
-5.19087
-5.33788
-5.50185
-5.68298
-4.26907
-4.27295
-4.27962
-4.28977
-4.30426
-4.32413
-4.35037
-4.38358
-4.42378
-4.47049
-4.52299
-4.58085
-4.64437
-4.71475
-4.79369
-4.88274
-4.9827
-5.0938
-5.21663
-5.35312
-5.5064
-5.67842
-5.86925
-4.39536
-4.39911
-4.40626
-4.41708
-4.43233
-4.45305
-4.48019
-4.51434
-4.55546
-4.603
-4.65624
-4.71485
-4.77931
-4.85105
-4.9319
-5.02335
-5.12606
-5.24017
-5.36648
-5.50742
-5.66666
-5.84621
-6.04596
-4.51649
-4.52014
-4.52767
-4.53904
-4.55494
-4.57638
-4.60428
-4.63918
-4.68101
-4.7292
-4.78304
-4.84224
-4.90748
-4.98033
-5.06276
-5.15619
-5.26114
-5.37769
-5.50685
-5.65151
-5.81573
-6.00147
-6.20847
-4.63255
-4.63617
-4.64397
-4.65578
-4.67222
-4.69423
-4.72268
-4.7581
-4.8004
-4.849
-4.90317
-4.96273
-5.02843
-5.102
-5.18546
-5.28022
-5.38669
-5.50492
-5.63607
-5.78334
-5.95104
-6.14099
-6.35288
-4.7437
-4.74734
-4.75531
-4.76747
-4.78432
-4.8067
-4.83549
-4.87117
-4.91364
-4.96232
-5.01652
-5.07608
-5.14181
-5.21551
-5.29924
-5.39445
-5.50149
-5.62044
-5.75252
-5.90104
-6.07038
-6.26218
-6.47623
-4.85008
-4.85377
-4.86185
-4.87426
-4.89138
-4.91392
-4.94282
-4.97845
-5.02075
-5.06917
-5.12303
-5.18217
-5.24739
-5.3205
-5.40358
-5.49812
-5.60456
-5.72302
-5.85475
-6.00298
-6.17196
-6.36309
-6.57637
-4.95183
-4.95559
-4.96371
-4.97626
-4.99349
-5.01608
-5.04478
-5.08003
-5.12179
-5.16955
-5.22265
-5.28093
-5.34509
-5.41684
-5.49825
-5.59087
-5.69532
-5.81187
-5.94175
-6.08799
-6.25451
-6.44249
-6.65227
-5.04906
-5.0529
-5.06101
-5.07362
-5.09082
-5.11323
-5.14147
-5.17599
-5.21678
-5.26343
-5.31534
-5.37227
-5.43482
-5.5045
-5.58324
-5.67268
-5.77366
-5.88668
-6.01302
-6.15543
-6.31736
-6.49957
-6.70287
-5.1419
-5.14583
-5.15389
-5.16647
-5.18353
-5.20554
-5.23304
-5.26644
-5.30582
-5.35085
-5.40103
-5.45611
-5.5165
-5.58344
-5.65865
-5.74375
-5.83982
-5.94767
-6.06863
-6.20521
-6.36034
-6.53438
-6.72871
-5.23052
-5.23455
-5.24253
-5.25499
-5.27178
-5.29321
-5.3197
-5.35162
-5.38911
-5.43199
-5.47987
-5.53251
-5.59016
-5.65374
-5.72467
-5.80446
-5.89435
-5.99545
-6.10922
-6.2379
-6.38392
-6.54728
-6.72982
-5.31513
-5.3193
-5.3271
-5.33939
-5.35579
-5.37648
-5.40174
-5.43186
-5.46704
-5.50722
-5.55219
-5.60177
-5.65606
-5.71568
-5.78169
-5.85539
-5.93809
-6.0311
-6.13601
-6.25482
-6.38946
-6.53956
-6.7072
-5.39595
-5.40033
-5.40788
-5.41993
-5.43583
-5.45563
-5.47946
-5.50753
-5.54003
-5.57705
-5.61854
-5.66441
-5.71472
-5.76979
-5.8303
-5.89728
-5.97198
-6.05586
-6.15051
-6.25774
-6.37899
-6.5135
-6.66327
-5.47319
-5.4779
-5.48511
-5.49685
-5.51214
-5.53092
-5.55317
-5.579
-5.60856
-5.64205
-5.67957
-5.72116
-5.76687
-5.81681
-5.8713
-5.93104
-5.99714
-6.07103
-6.15434
-6.24863
-6.3549
-6.47204
-6.60161
-5.5472
-5.55224
-5.55905
-5.57043
-5.58496
-5.60257
-5.62312
-5.64657
-5.67304
-5.70275
-5.73594
-5.77279
-5.81337
-5.85765
-5.90566
-5.95774
-6.01476
-6.07806
-6.1492
-6.22955
-6.31975
-6.41844
-6.52653
-5.61839
-5.62372
-5.62996
-5.64094
-5.65454
-5.67083
-5.68955
-5.71053
-5.73383
-5.75964
-5.78829
-5.82007
-5.85511
-5.89331
-5.93446
-5.97857
-6.0262
-6.07852
-6.13695
-6.20272
-6.27624
-6.35604
-6.44243
-5.68686
-5.69305
-5.69821
-5.70872
-5.7212
-5.73596
-5.7527
-5.77115
-5.79126
-5.81317
-5.83722
-5.86377
-5.89301
-5.92483
-5.95885
-5.99481
-6.03294
-6.07414
-6.11967
-6.17062
-6.22732
-6.28838
-6.35369
-5.75216
-5.76079
-5.76421
-5.77418
-5.7853
-5.79829
-5.81289
-5.82874
-5.84568
-5.86376
-5.88327
-5.90457
-5.92792
-5.9532
-5.97998
-6.00776
-6.03649
-6.06677
-6.09962
-6.13604
-6.17632
-6.21934
-6.26482
-5.81317
-5.82742
-5.82828
-5.83762
-5.84709
-5.85803
-5.87028
-5.88344
-5.89724
-5.91161
-5.92671
-5.9429
-5.9604
-5.97916
-5.99873
-6.01851
-6.0382
-6.0581
-6.079
-6.10172
-6.12656
-6.15279
-6.18021
-5.87076
-5.89332
-5.89037
-5.89904
-5.9066
-5.91521
-5.9249
-5.93525
-5.94591
-5.95666
-5.96757
-5.97884
-5.99072
-6.00316
-6.01578
-6.02793
-6.03919
-6.04958
-6.05963
-6.06996
-6.08086
-6.09196
-6.10339
-5.92801
-5.96135
-5.95131
-5.95933
-5.96486
-5.97081
-5.97768
-5.98506
-5.99253
-5.99978
-6.0067
-6.01341
-6.02007
-6.02666
-6.03284
-6.03804
-6.0417
-6.04366
-6.04417
-6.04362
-6.04221
-6.03983
-6.03695
-5.9814
-6.03978
-6.01622
-6.02187
-6.02489
-6.02778
-6.0315
-6.03574
-6.04001
-6.04392
-6.04725
-6.04996
-6.05214
-6.05373
-6.05444
-6.05371
-6.05095
-6.04582
-6.03826
-6.02837
-6.01616
-6.00158
-5.98528
-6.0085
-6.13723
-6.09005
-6.08613
-6.08483
-6.08413
-6.08442
-6.08537
-6.08646
-6.08724
-6.08742
-6.08684
-6.08542
-6.08304
-6.07937
-6.07389
-6.06604
-6.0553
-6.04135
-6.02391
-6.00275
-5.97777
-5.9503
-5.99432
-6.22629
-6.14985
-6.13168
-6.1245
-6.11985
-6.11651
-6.11386
-6.11136
-6.10865
-6.10541
-6.10138
-6.09632
-6.08995
-6.08192
-6.07181
-6.05914
-6.04339
-6.02405
-6.0006
-5.97257
-5.93978
-5.90325
-217.147
-164.471
-39.3187
-1.2985
143.044
114.233
87.1635
35.7503
168.126
128.011
92.4152
63.572
67.5297
54.4404
48.1453
43.1752
-7.13066
-8.07823
-3.08127
3.02499
-3.42476
-4.93275
-4.36357
1.01971
-4.72756
-4.98934
-4.95544
-4.46116
-3.65724
-3.70333
-3.81951
-4.09317
-4.18598
-4.25231
-4.30071
-4.36207
-4.28866
-4.36804
-4.46103
-4.56281
-4.43228
-4.51599
-4.60843
-4.70146
-4.57652
-4.65843
-4.7483
-4.83755
-4.72668
-4.80778
-4.89645
-4.98444
-4.88682
-4.96874
-5.05794
-5.14657
-5.05848
-5.14288
-5.23444
-5.32557
-5.2416
-5.33003
-5.42571
-5.52127
-5.43441
-5.52813
-5.62942
-5.73123
-5.63326
-5.73328
-5.84139
-5.95095
-5.83312
-5.94002
-6.05591
-6.17439
-6.02849
-6.14254
-6.26688
-6.39501
-6.21381
-6.33491
-6.46794
-6.6058
-6.38369
-6.51119
-6.6523
-6.79893
-6.53361
-6.66624
-6.81389
-6.96717
-6.66024
-6.79633
-6.94839
-7.10573
-6.76108
-6.89858
-7.05255
-7.21117
-6.83447
-6.97137
-7.12476
-7.28222
-6.88135
-7.01546
-7.16625
-7.32077
-6.90082
-7.03058
-7.17658
-7.32578
-6.89275
-7.01587
-7.15434
-7.29539
-6.85765
-6.97148
-7.09917
-7.22875
-6.79784
-6.89958
-7.01328
-7.12801
-6.7175
-6.8048
-6.90196
-6.99929
-6.62221
-6.69371
-6.77285
-6.85143
-6.51772
-6.57323
-6.63417
-6.69405
-6.40946
-6.44982
-6.4937
-6.53629
-6.30272
-6.32954
-6.35835
-6.38586
-6.20247
-6.21766
-6.23357
-6.24828
-6.11256
-6.11816
-6.12333
-6.1273
-6.03495
-6.03283
-6.02949
-6.02498
-5.97248
-5.9637
-5.95412
-5.94414
-5.93049
-5.91726
-5.90351
-5.8892
-5.8759
-5.85867
-5.84173
-5.82494
17.3799
30.7207
31.3133
31.2864
31.2246
31.2511
31.3204
31.3499
31.3783
31.372
31.3269
31.2536
31.1619
31.0618
30.964
30.8785
30.814
30.7775
30.7672
-22.2164
-14.1594
12.2607
30.3517
30.9834
31.2994
31.3355
31.3012
31.3181
31.3029
31.2454
31.1559
31.0421
30.9155
30.7895
30.6789
30.5972
30.553
30.5421
18.2726
-8.77424
-20.6106
-15.5006
4.28896
26.9868
30.986
31.3087
31.3384
31.2741
31.1796
31.064
30.9223
30.7596
30.5933
30.4462
30.3391
30.2845
30.2738
26.618
1.88818
-7.91336
-7.69905
-11.1572
-11.0747
7.28965
28.4973
31.2447
31.2157
31.121
30.9713
30.7951
30.587
30.3654
30.1676
30.025
29.9563
29.9469
5.81462
-8.76122
-15.0657
-12.8752
-10.5562
-9.08167
-8.0984
0.36748
23.1465
30.8188
30.9829
30.8621
30.6503
30.3841
30.0895
29.824
29.6347
29.5478
29.541
2.83496
-9.17285
-18.343
-20.1846
-21.6194
-21.8918
-15.4132
-9.34001
1.39316
22.179
30.2745
30.6492
30.4333
30.1069
29.7313
29.3846
29.1397
29.0319
29.0301
-3.29883
-0.715884
4.66997
8.43286
-4.51005
-24.7493
-27.434
-21.057
-10.6162
5.19424
25.0128
29.6971
29.9901
29.6397
29.2069
28.7945
28.5005
28.3754
28.383
-4.72593
-5.12373
-5.05504
-4.78224
-3.11626
3.26228
-12.8314
-30.39
-20.9334
-5.83895
14.1139
27.2721
28.9664
28.8139
28.4039
27.9793
27.6701
27.5434
27.5675
-4.51405
-4.64839
-4.82019
-5.18216
-5.61852
-5.95291
-6.20384
-21.4553
-28.4271
-13.5219
4.40009
22.3479
26.9835
27.4897
27.2265
26.8754
26.6089
26.5078
26.5583
-4.7356
-4.94611
-5.10919
-5.27231
-5.3601
-5.34935
-5.70717
-8.67207
-26.2168
-19.7832
-2.0374
17.5537
24.6157
25.7627
25.6724
25.469
25.3065
25.2606
25.3462
-4.85697
-5.05577
-5.22839
-5.39359
-5.53025
-5.54833
-5.456
-5.76692
-16.3336
-23.9188
-8.52717
11.7519
21.8898
23.7238
23.8241
23.8081
23.7904
23.82
23.9454
-4.98369
-5.17782
-5.35287
-5.5078
-5.61636
-5.62571
-5.51887
-5.804
-9.74634
-23.6601
-11.4414
7.38322
18.7159
21.282
21.7076
21.9591
22.1148
22.2294
22.394
-5.12776
-5.32158
-5.49945
-5.65215
-5.75055
-5.75785
-5.63959
-5.82344
-7.48743
-20.1568
-10.7824
5.85888
16.1687
18.6495
19.4092
20.0115
20.3521
20.5507
20.7486
-5.29086
-5.48832
-5.67363
-5.83304
-5.93363
-5.94244
-5.81388
-5.84335
-6.53038
-16.3345
-9.61437
6.25654
14.4439
16.4184
17.3633
18.1619
18.5992
18.8564
19.074
-5.47432
-5.68055
-5.87919
-6.05214
-6.15863
-6.16413
-6.00314
-5.91618
-6.38595
-14.5574
-7.2985
7.03538
13.3017
14.8921
15.7922
16.5271
16.9414
17.2122
17.4279
-5.6781
-5.89936
-6.11815
-6.31058
-6.42607
-6.42185
-6.20665
-6.01973
-6.53772
-13.354
-4.37036
7.69835
12.5462
13.7451
14.4481
15.0327
15.3913
15.6472
15.8454
-5.89964
-6.14228
-6.38845
-6.60673
-6.7362
-6.72355
-6.47765
-6.3214
-7.17496
-10.5991
-1.57113
7.78351
11.638
12.421
13.1069
13.6033
13.926
14.162
14.3387
-6.1338
-6.40278
-6.68212
-6.93122
-7.08013
-7.07103
-6.87816
-6.97409
-8.3439
-6.32447
1.80181
6.74694
9.6995
10.8615
11.7545
12.2243
12.5315
12.7521
12.9095
-6.37367
-6.67138
-6.98656
-7.26522
-7.43226
-7.42157
-7.26397
-7.59966
-7.50025
3.76473
11.0074
6.42348
8.07922
9.6674
10.4996
10.9191
11.2136
11.4186
11.558
-6.61152
-6.93845
-7.28953
-7.59069
-7.76799
-7.73556
-7.47806
-7.45217
-3.65699
12.0248
13.7887
7.01567
7.46804
8.85327
9.37867
9.71442
9.98061
10.1628
10.2837
-6.83896
-7.19589
-7.58352
-7.91627
-8.11752
-8.07869
-7.65201
-6.67277
-6.48808
1.6765
6.25086
6.33147
6.56529
7.80645
8.2953
8.59099
8.82224
8.979
9.08187
-7.04651
-7.43207
-7.85625
-8.25871
-8.52078
-8.53439
-8.25734
-9.85921
-3.17543
2.80202
5.57414
5.90446
5.95726
6.68573
7.22281
7.51845
7.72263
7.85673
7.94325
-7.22516
-7.63186
-8.08547
-8.5653
-8.8779
-9.20733
-8.34362
-4.64015
-3.14368
3.3948
5.50961
5.90947
5.76625
5.9389
6.29277
6.51918
6.67959
6.78702
6.85762
-7.36922
-7.7862
-8.25546
-8.75773
-9.11175
-9.36913
-6.86456
-4.63245
-4.93276
3.21164
5.47849
5.89151
5.57544
5.42526
5.49604
5.5912
5.6848
5.75899
5.81409
-7.47541
-7.89233
-8.35851
-8.83051
-9.19668
-8.89323
-6.73239
-8.03004
-8.05881
-2.0576
4.67508
5.56206
5.20802
4.81087
4.68519
4.67245
4.70765
4.75464
4.79996
-7.54407
-7.95614
-8.41517
-8.85751
-9.21784
-9.06863
-9.35845
-10.6162
-11.7041
-7.9223
2.73146
4.58658
4.52971
3.929
3.7376
3.69753
3.71449
3.7557
3.80452
-7.57767
-7.98459
-8.44617
-8.89969
-9.2957
-9.48481
-9.68878
-8.09071
-13.5087
-12.8388
-3.81168
2.48293
3.32861
2.69827
2.61754
2.64013
2.69201
2.75389
2.82736
-7.57422
-7.97342
-8.44122
-8.92688
-9.37022
-9.82266
-9.70338
-9.07658
-12.6018
-17.5067
-13.5848
-2.29783
0.645823
1.04165
1.32967
1.51135
1.65441
1.75561
1.88439
-7.53063
-7.91443
-8.3791
-8.89877
-9.41127
-9.90679
-10.342
-11.1462
-10.6226
-17.6856
-16.406
-8.41967
-2.8909
-0.64174
-0.0262076
0.38091
0.647492
0.800011
0.98426
-7.44495
-7.802
-8.24598
-8.777
-9.36033
-9.9539
-10.8894
-12.4999
-15.2965
-16.389
-14.0563
-11.4255
-5.04409
-1.99251
-1.20159
-0.632411
-0.271513
-0.0735604
0.145221
-7.31916
-7.6358
-8.03335
-8.52239
-9.09501
-9.75003
-10.7783
-12.7581
-15.9571
-19.1549
-15.8427
-10.2727
-5.77121
-3.04858
-2.13659
-1.46866
-1.06306
-0.838335
-0.618998
-7.16072
-7.42583
-7.75521
-8.15818
-8.641
-9.22131
-9.99181
-11.2069
-13.1062
-14.4814
-13.1385
-8.98391
-5.6459
-3.72802
-2.77312
-2.11771
-1.71829
-1.48936
-1.30038
-6.98079
-7.18903
-7.44055
-7.73751
-8.08064
-8.47739
-8.92978
-9.41683
-9.99196
-10.2934
-9.4904
-7.31445
-5.26397
-3.98497
-3.16083
-2.60561
-2.2513
-2.04067
-1.90115
-6.79188
-6.9446
-7.12136
-7.31895
-7.52989
-7.74691
-7.95206
-8.10937
-8.15364
-7.90039
-7.1588
-6.00992
-4.87914
-4.04052
-3.41787
-2.98346
-2.69254
-2.51658
-2.43188
-6.60541
-6.70873
-6.82117
-6.93735
-7.04702
-7.13812
-7.19669
-7.20112
-7.07879
-6.72289
-6.11429
-5.37525
-4.67595
-4.09757
-3.63925
-3.30559
-3.07789
-2.94242
-2.90658
-6.43016
-6.49233
-6.55341
-6.60786
-6.64647
-6.6581
-6.63221
-6.55224
-6.37622
-6.06252
-5.61777
-5.10911
-4.62353
-4.205
-3.86255
-3.60774
-3.43524
-3.33806
-3.33891
-6.27185
-6.30114
-6.32355
-6.33482
-6.32817
-6.29482
-6.22638
-6.11062
-5.92953
-5.67129
-5.34833
-4.99416
-4.65253
-4.34968
-4.09685
-3.907
-3.78102
-3.71622
-3.74072
-6.13383
-6.13771
-6.13225
-6.11627
-6.08559
-6.0332
-5.95111
-5.83323
-5.67296
-5.4694
-5.2329
-4.984
-4.74453
-4.52955
-4.34857
-4.2124
-4.12459
-4.08483
-4.12188
-6.01848
-6.00367
-5.97807
-5.94665
-5.90852
-5.8545
-5.77905
-5.67854
-5.55131
-5.39967
-5.23157
-5.05913
-4.89465
-4.74687
-4.62254
-4.5293
-4.47117
-4.4487
-4.48981
-5.92929
-5.89964
-5.85277
-5.81086
-5.78182
-5.74151
-5.68627
-5.61443
-5.52599
-5.42361
-5.31285
-5.20098
-5.09495
-4.99999
-4.92024
-4.86062
-4.82471
-4.81276
-4.85109
-5.8644
-5.81581
-5.72988
-5.67702
-5.68289
-5.67335
-5.64992
-5.61548
-5.57072
-5.51727
-5.45819
-5.39738
-5.33871
-5.28518
-5.23916
-5.20365
-5.18163
-5.17304
-5.20404
-5.79598
-5.7332
-5.61969
-5.59772
-5.64275
-5.66134
-5.66705
-5.66785
-5.66494
-5.65846
-5.64868
-5.63622
-5.62214
-5.60754
-5.59347
-5.58151
-5.57344
-5.56603
-5.57087
)
;

boundaryField
{
    leftWall
    {
        type            calculated;
        value           nonuniform List<scalar> 
50
(
1012.69
952.946
892.451
831.588
770.402
708.834
646.908
584.671
486.929
352.935
218.799
93.313
21.0059
-2.60736
-2.2963
-2.46124
-2.60113
-2.75463
-2.91532
-3.07774
-3.2403
-3.40089
-3.55805
-3.71075
-3.85836
-4.00063
-4.13752
-4.26907
-4.39536
-4.51649
-4.63255
-4.7437
-4.85008
-4.95183
-5.04906
-5.1419
-5.23052
-5.31513
-5.39595
-5.47319
-5.5472
-5.61839
-5.68686
-5.75216
-5.81317
-5.87076
-5.92801
-5.9814
-6.0085
-5.99432
)
;
    }
    rightWall
    {
        type            calculated;
        value           nonuniform List<scalar> 
50
(
31.4197
31.359
31.2947
31.2267
31.1547
31.0784
30.9973
30.9109
30.7672
30.5421
30.2738
29.9469
29.541
29.0301
28.383
27.5675
26.5583
25.3462
23.9454
22.394
20.7486
19.074
17.4279
15.8454
14.3387
12.9095
11.558
10.2837
9.08187
7.94325
6.85762
5.81409
4.79996
3.80452
2.82736
1.88439
0.98426
0.145221
-0.618998
-1.30038
-1.90115
-2.43188
-2.90658
-3.33891
-3.74072
-4.12188
-4.48981
-4.85109
-5.20404
-5.57087
)
;
    }
    lowerWall
    {
        type            calculated;
        value           nonuniform List<scalar> 
62
(
1042.12
1045.46
1055.98
1069.22
1080.47
1088.91
1094.81
1098.88
1101.87
1104.42
1107.13
1110.67
1115.89
1123.99
1136.73
1157.01
1187.25
1229.96
1284.23
1342.34
1389.95
1399.15
1439.56
1412.8
1356.18
1308.54
1272.64
1227.58
1161.53
1050.4
861.014
-154.829
-102.154
23.0775
61.2542
31.7904
31.7353
31.6807
31.6259
31.5717
31.5199
31.4974
31.3254
31.8198
31.7962
31.7891
31.7924
31.8117
31.8401
31.8671
31.8826
31.8818
31.8606
31.8203
31.7655
31.7025
31.6381
31.5774
31.5252
31.4853
31.4598
31.4492
)
;
    }
    atmosphere
    {
        type            calculated;
        value           nonuniform List<scalar> 
46
(
-6.02778
-6.17462
-6.14498
-6.13444
-6.12694
-6.12107
-6.11607
-6.11147
-6.10689
-6.10208
-6.09674
-6.0906
-6.08332
-6.07456
-6.06399
-6.05126
-6.03604
-6.01791
-5.9964
-5.97104
-5.94142
-5.90725
-5.86855
-5.83753
-5.8207
-5.80731
-5.79683
-5.78189
-5.75766
-5.741
-5.73001
-5.72904
-5.72904
-5.72904
-5.72904
-5.72904
-5.72906
-5.72908
-5.72905
-5.72904
-5.72904
-5.72904
-5.72904
-5.72904
-5.72904
-5.72904
)
;
    }
    defaultFaces
    {
        type            empty;
    }
}


// ************************************************************************* //
