/*--------------------------------*- C++ -*----------------------------------*\
| =========                 |                                                 |
| \\      /  F ield         | OpenFOAM: The Open Source CFD Toolbox           |
|  \\    /   O peration     | Version:  v2012                                 |
|   \\  /    A nd           | Website:  www.openfoam.com                      |
|    \\/     M anipulation  |                                                 |
\*---------------------------------------------------------------------------*/
FoamFile
{
    version     2.0;
    format      ascii;
    class       volScalarField;
    location    "0.35";
    object      p_rgh;
}
// * * * * * * * * * * * * * * * * * * * * * * * * * * * * * * * * * * * * * //

dimensions      [1 -1 -2 0 0 0 0];


internalField   nonuniform List<scalar> 
2268
(
1042.12
1045.46
1055.98
1069.22
1080.47
1088.91
1094.81
1098.88
1101.87
1104.42
1107.13
1110.67
1115.89
1123.99
1136.73
1157.01
1187.25
1229.96
1284.23
1342.34
1389.95
1399.15
1439.56
1041.23
1042.53
1051.6
1062.99
1072.99
1080.75
1086.35
1090.35
1093.37
1096.02
1098.93
1102.8
1108.55
1117.43
1131.16
1152
1183.87
1228.8
1287.34
1351.48
1403.79
1402.64
1440.16
1039.6
1041.19
1048.3
1057.29
1065.43
1071.92
1076.74
1080.27
1083.02
1085.56
1088.52
1092.66
1098.93
1108.64
1123.54
1145.88
1178.89
1224.95
1284.69
1350.81
1407.44
1417.13
1455.52
1037.59
1040.17
1046.06
1053.08
1059.41
1064.46
1068.24
1071.01
1073.24
1075.44
1078.23
1082.39
1088.89
1099.06
1114.61
1137.63
1170.76
1216.26
1274.46
1339.16
1397.91
1422.62
1477.06
1035.27
1038.97
1044.14
1049.6
1054.36
1058.05
1060.73
1062.67
1064.26
1065.98
1068.43
1072.4
1078.84
1089.03
1104.61
1127.46
1159.8
1203.43
1258.5
1320.13
1378.39
1419.1
1490.4
1032.56
1037.24
1041.89
1046.03
1049.4
1051.83
1053.47
1054.58
1055.49
1056.66
1058.69
1062.31
1068.46
1078.35
1093.49
1115.57
1146.4
1187.34
1238.26
1295.3
1349.64
1403.37
1482.83
1029.49
1034.94
1039.08
1041.98
1044.07
1045.35
1046.01
1046.3
1046.54
1047.15
1048.69
1051.86
1057.56
1066.91
1081.27
1102.14
1130.93
1168.56
1214.42
1264.89
1310.47
1369.32
1430.23
1026.11
1032.11
1035.63
1037.29
1038.2
1038.46
1038.24
1037.8
1037.41
1037.46
1038.49
1041.16
1046.28
1054.89
1068.18
1087.45
1113.75
1147.47
1187.29
1228.56
1259.41
1299.05
1299.41
31.8198
31.7962
31.7891
31.7924
31.8117
31.8401
31.8671
31.8826
31.8818
31.8606
31.8203
31.7655
31.7025
31.6381
31.5774
31.5252
31.4853
31.4598
31.4492
31.8236
31.798
31.7887
31.7885
31.8058
31.8328
31.8592
31.8746
31.8745
31.8545
31.8159
31.7628
31.7011
31.6373
31.577
31.5248
31.4845
31.4585
31.4473
31.8278
31.7929
31.784
31.7817
31.7981
31.8245
31.851
31.8666
31.8674
31.8489
31.8117
31.7601
31.6994
31.6359
31.575
31.5218
31.4804
31.4535
31.4419
31.8319
31.7791
31.7742
31.7717
31.7897
31.8177
31.8459
31.8625
31.8645
31.8469
31.8101
31.7588
31.6976
31.6329
31.5703
31.5152
31.4721
31.4443
31.4327
31.8366
31.7552
31.7605
31.7587
31.7806
31.8127
31.8445
31.8628
31.8665
31.8494
31.812
31.7591
31.6957
31.6282
31.5627
31.5049
31.4596
31.4308
31.4196
31.8436
31.7202
31.7442
31.7418
31.7699
31.8092
31.8462
31.867
31.8731
31.8565
31.8176
31.7617
31.6942
31.6223
31.5525
31.4908
31.4427
31.4128
31.4021
31.88
31.6773
31.7284
31.7212
31.7568
31.8047
31.8492
31.8738
31.8833
31.8677
31.8271
31.7671
31.6939
31.6156
31.5397
31.4729
31.4213
31.3901
31.3798
31.7668
31.6214
31.7311
31.7159
31.7469
31.7931
31.8477
31.8781
31.8941
31.881
31.8387
31.774
31.6941
31.608
31.5245
31.4513
31.3952
31.3623
31.3523
1020.4
1026.72
1029.04
1028.86
1028.07
1026.93
1025.54
1024.1
1022.83
1022.08
1022.33
1024.16
1028.27
1035.48
1046.74
1063.02
1084.9
1111.92
1141.35
1165.72
1167.44
1113.24
846.989
1011.6
1017.35
1017.08
1014.14
1011.04
1007.98
1004.99
1002.2
999.76
997.95
997.171
997.876
1000.54
1005.67
1013.87
1025.98
1042.36
1062.15
1082.23
1094.98
1083.77
1022.73
913.991
1002.62
1005.46
1000.33
993.973
988.449
983.604
979.277
975.43
972.079
969.439
967.88
967.727
969.151
972.146
976.943
984.82
996.512
1011.59
1028.24
1042.49
1045.86
1026.41
995.429
986.678
913.431
843.497
832.84
832.827
833.188
831.254
827.404
820.939
812.402
804.267
798.624
796.348
795.67
797.208
815.797
859.557
918.378
982.613
1003.98
1018.96
1018.89
1002.18
426.549
232.673
140.567
136.893
140.66
143.139
143.094
140.575
134.501
126.295
118.529
112.817
109.738
107.564
104.28
119.786
162.607
244.136
385.785
622.369
947.616
1043.85
1037.62
-1.44792
-0.894741
-0.774615
-0.884003
-0.927129
-0.944877
-0.96746
-0.991573
-1.01281
-1.03045
-1.04553
-1.06183
-1.0877
-1.13845
-1.21752
-1.33823
-1.50738
-1.73487
-2.01918
5.6194
59.2839
181.432
384.944
-1.01166
-0.96933
-0.927075
-0.90435
-0.882455
-0.867058
-0.864143
-0.871778
-0.887706
-0.911363
-0.942919
-0.982858
-1.03209
-1.09169
-1.16085
-1.23853
-1.32057
-1.39245
-1.4329
-1.58255
-2.08113
-2.72761
-3.02547
-1.05142
-1.00624
-0.965435
-0.948004
-0.944236
-0.944905
-0.951819
-0.96582
-0.986351
-1.01339
-1.04746
-1.08933
-1.14003
-1.20063
-1.27182
-1.35417
-1.44755
-1.54954
-1.65051
-1.75462
-1.90524
-2.09295
-2.20745
-1.0661
-1.02707
-1.00629
-0.996359
-0.997013
-1.00314
-1.01469
-1.0324
-1.05636
-1.08683
-1.12432
-1.16944
-1.22293
-1.28557
-1.35806
-1.44129
-1.5361
-1.63715
-1.75207
-1.89136
-2.07338
-2.28904
-2.49481
-1.09441
-1.06745
-1.05312
-1.04762
-1.05016
-1.05864
-1.07268
-1.09273
-1.11918
-1.15246
-1.19297
-1.24105
-1.29697
-1.36106
-1.43376
-1.51587
-1.60843
-1.70526
-1.82134
-1.96163
-2.13095
-2.32138
-2.5112
-1.12991
-1.1136
-1.10342
-1.10055
-1.10471
-1.11488
-1.13078
-1.15277
-1.18136
-1.21697
-1.25987
-1.31012
-1.36766
-1.43252
-1.50504
-1.58602
-1.67657
-1.77799
-1.89439
-2.02946
-2.18379
-2.35196
-2.52361
-1.16714
-1.15911
-1.15285
-1.15235
-1.15801
-1.16951
-1.18687
-1.21048
-1.24083
-1.2783
-1.32299
-1.37472
-1.4332
-1.49834
-1.57044
-1.65039
-1.73958
-1.83978
-1.95293
-2.08098
-2.22492
-2.38136
-2.54458
-1.2045
-1.20225
-1.19908
-1.20061
-1.20761
-1.22025
-1.23883
-1.26381
-1.29567
-1.33465
-1.38069
-1.43342
-1.49241
-1.55751
-1.62912
-1.70824
-1.7963
-1.89489
-2.00549
-2.12927
-2.26663
-2.41538
-2.57195
-1.23989
-1.2413
-1.24052
-1.2438
-1.25204
-1.26575
-1.28546
-1.31169
-1.34489
-1.38517
-1.43229
-1.48574
-1.54502
-1.61003
-1.68132
-1.76004
-1.84763
-1.94545
-2.05459
-2.17576
-2.30925
-2.45372
-2.60698
-1.27186
-1.27525
-1.27636
-1.28116
-1.29059
-1.30537
-1.32618
-1.35362
-1.38806
-1.42952
-1.4776
-1.53167
-1.59124
-1.65633
-1.7277
-1.80665
-1.89458
-1.99266
-2.10162
-2.22196
-2.35414
-2.49757
-2.65103
-1.29936
-1.3036
-1.30628
-1.31244
-1.32302
-1.33887
-1.36078
-1.3894
-1.42505
-1.46763
-1.51661
-1.57132
-1.63133
-1.69686
-1.76886
-1.84877
-1.93795
-2.03733
-2.1474
-2.26866
-2.4019
-2.54725
-2.70419
-1.32179
-1.3262
-1.33022
-1.33759
-1.34927
-1.36618
-1.38921
-1.41901
-1.45586
-1.49952
-1.54939
-1.60482
-1.6655
-1.73186
-1.80508
-1.88667
-1.97791
-2.07951
-2.19184
-2.31554
-2.45192
-2.60176
-2.765
-1.33886
-1.34315
-1.34828
-1.35672
-1.36942
-1.38737
-1.41151
-1.44249
-1.48051
-1.52524
-1.57602
-1.63223
-1.69377
-1.76131
-1.83622
-1.92007
-2.01399
-2.1185
-2.23395
-2.3613
-2.50246
-2.65876
-2.83037
-1.35055
-1.35462
-1.36064
-1.36999
-1.38363
-1.40258
-1.4278
-1.45993
-1.49909
-1.54484
-1.5965
-1.65354
-1.71606
-1.78499
-1.86189
-1.94831
-2.04524
-2.15304
-2.27212
-2.4039
-2.55091
-2.71488
-2.89601
-1.35691
-1.36079
-1.36746
-1.37761
-1.39209
-1.41197
-1.43821
-1.47142
-1.51162
-1.55833
-1.61083
-1.66869
-1.73221
-1.80258
-1.88153
-1.97058
-2.07054
-2.18163
-2.30447
-2.44096
-2.59424
-2.76626
-2.95708
-1.358
-1.36175
-1.36891
-1.37972
-1.39497
-1.41569
-1.44284
-1.47698
-1.5181
-1.56564
-1.61889
-1.67749
-1.74195
-1.81369
-1.89454
-1.986
-2.0887
-2.20281
-2.32912
-2.47006
-2.6293
-2.80886
-3.0086
-1.35394
-1.35759
-1.36512
-1.37648
-1.39239
-1.41383
-1.44173
-1.47662
-1.51846
-1.56665
-1.62048
-1.67969
-1.74493
-1.81778
-1.9002
-1.99364
-2.09858
-2.21513
-2.3443
-2.48896
-2.65318
-2.83892
-3.04592
-1.34481
-1.34843
-1.35622
-1.36804
-1.38448
-1.40648
-1.43494
-1.47036
-1.51266
-1.56125
-1.61543
-1.67498
-1.74069
-1.81426
-1.89771
-1.99247
-2.09894
-2.21717
-2.34833
-2.4956
-2.66329
-2.85325
-3.06514
-1.33076
-1.3344
-1.34237
-1.35453
-1.37138
-1.39376
-1.42255
-1.45823
-1.5007
-1.54938
-1.60358
-1.66313
-1.72887
-1.80256
-1.8863
-1.98151
-2.08855
-2.2075
-2.33957
-2.4881
-2.65744
-2.84924
-3.06329
-1.31195
-1.31564
-1.32372
-1.33613
-1.35325
-1.37578
-1.40468
-1.44032
-1.48262
-1.53103
-1.58489
-1.64403
-1.70926
-1.78236
-1.86544
-1.95998
-2.06643
-2.18489
-2.31661
-2.46485
-2.63382
-2.82495
-3.03824
-1.2885
-1.29226
-1.30038
-1.31293
-1.33016
-1.35275
-1.38145
-1.4167
-1.45846
-1.50622
-1.55932
-1.6176
-1.68176
-1.75351
-1.83492
-1.92754
-2.03199
-2.14854
-2.27842
-2.42466
-2.59118
-2.77916
-2.98894
-1.26053
-1.26437
-1.27249
-1.28509
-1.3023
-1.3247
-1.35295
-1.38746
-1.42826
-1.4749
-1.52681
-1.58374
-1.6463
-1.71597
-1.79472
-1.88415
-1.98513
-2.09816
-2.2245
-2.36691
-2.52883
-2.71104
-2.91434
-1.22818
-1.23211
-1.24018
-1.25275
-1.26981
-1.29182
-1.31932
-1.35272
-1.3921
-1.43713
-1.48731
-1.54239
-1.60278
-1.66972
-1.74493
-1.83003
-1.9261
-2.03395
-2.15492
-2.29149
-2.44662
-2.62066
-2.81499
-1.1916
-1.19563
-1.20362
-1.21608
-1.23286
-1.25429
-1.28079
-1.31271
-1.3502
-1.39308
-1.44096
-1.4936
-1.55125
-1.61483
-1.68575
-1.76554
-1.85544
-1.95654
-2.07031
-2.19898
-2.34501
-2.50837
-2.69091
-1.15102
-1.15519
-1.16299
-1.17529
-1.19169
-1.21237
-1.23763
-1.26775
-1.30293
-1.34311
-1.38808
-1.43766
-1.49196
-1.55157
-1.61758
-1.69128
-1.77398
-1.867
-1.9719
-2.09071
-2.22535
-2.37545
-2.54309
-1.10665
-1.11102
-1.11857
-1.13063
-1.14653
-1.16633
-1.19016
-1.21823
-1.25073
-1.28775
-1.32924
-1.37511
-1.42542
-1.48048
-1.541
-1.60798
-1.68268
-1.76655
-1.86121
-1.96844
-2.08968
-2.2242
-2.37396
-1.0587
-1.0634
-1.07061
-1.08236
-1.09764
-1.11642
-1.13867
-1.1645
-1.19407
-1.22755
-1.26507
-1.30666
-1.35237
-1.40231
-1.4568
-1.51654
-1.58264
-1.65653
-1.73984
-1.83414
-1.9404
-2.05755
-2.18712
-1.00751
-1.01255
-1.01936
-1.03074
-1.04527
-1.06288
-1.08343
-1.10688
-1.13335
-1.16306
-1.19624
-1.23309
-1.27367
-1.31795
-1.36596
-1.41805
-1.47507
-1.53837
-1.60951
-1.68986
-1.78006
-1.87874
-1.98684
-0.953507
-0.958834
-0.965073
-0.97605
-0.989657
-1.00595
-1.02466
-1.04565
-1.06894
-1.09475
-1.1234
-1.15518
-1.19022
-1.22842
-1.26957
-1.31368
-1.36132
-1.41363
-1.47206
-1.53783
-1.61135
-1.69115
-1.77754
-0.896775
-0.902968
-0.908131
-0.918638
-0.931121
-0.94588
-0.962618
-0.981074
-1.00118
-1.02309
-1.04714
-1.07369
-1.10293
-1.13475
-1.16877
-1.20473
-1.24286
-1.28406
-1.32958
-1.38054
-1.43724
-1.4983
-1.56361
-0.836882
-0.845512
-0.848933
-0.858907
-0.870028
-0.883017
-0.89761
-0.913464
-0.930403
-0.948485
-0.967991
-0.989297
-1.01264
-1.03793
-1.0647
-1.09248
-1.12122
-1.15149
-1.18435
-1.22076
-1.26104
-1.30406
-1.34954
-0.772696
-0.78695
-0.78781
-0.797148
-0.806618
-0.817559
-0.829811
-0.842974
-0.85677
-0.871136
-0.886245
-0.902425
-0.919931
-0.938694
-0.958262
-0.978041
-0.997731
-1.01763
-1.03853
-1.06125
-1.08609
-1.11232
-1.13974
-0.705093
-0.72766
-0.724702
-0.733376
-0.740938
-0.749543
-0.759236
-0.76959
-0.780241
-0.790999
-0.801901
-0.813176
-0.825051
-0.837498
-0.850111
-0.862269
-0.873521
-0.883911
-0.893961
-0.904297
-0.915199
-0.926296
-0.93773
-0.63715
-0.670488
-0.660447
-0.66847
-0.673999
-0.679956
-0.686823
-0.694206
-0.701672
-0.70892
-0.715845
-0.722552
-0.729206
-0.735798
-0.741985
-0.747177
-0.750837
-0.7528
-0.753313
-0.752764
-0.75135
-0.748966
-0.746092
-0.565344
-0.623722
-0.600164
-0.605816
-0.608839
-0.611728
-0.615445
-0.619682
-0.623954
-0.627865
-0.631194
-0.633911
-0.636085
-0.637678
-0.638385
-0.637652
-0.634896
-0.629763
-0.622207
-0.612318
-0.600104
-0.58553
-0.569227
-0.467249
-0.595985
-0.548803
-0.544884
-0.543583
-0.54288
-0.543171
-0.544125
-0.54521
-0.545991
-0.546169
-0.545588
-0.544174
-0.54179
-0.538117
-0.532645
-0.524788
-0.514052
-0.500098
-0.482666
-0.4615
-0.436526
-0.40905
-0.327878
-0.559849
-0.483407
-0.46524
-0.458057
-0.453411
-0.450071
-0.447413
-0.44492
-0.442207
-0.438967
-0.434939
-0.429878
-0.423506
-0.415479
-0.405371
-0.392699
-0.37695
-0.357609
-0.334158
-0.30613
-0.273337
-0.236808
313.933
366.611
492.435
531.789
801.616
770.324
744.242
694.097
951.974
911.664
876.256
847.372
976.562
963.472
957.168
952.184
1027.09
1026.13
1031.12
1037.21
520.265
552.887
700.082
1053.34
-2.16459
-0.862016
9.41318
47.7556
-2.24736
-2.29405
-2.40968
-2.68073
-2.6468
-2.71729
-2.76557
-2.82758
-2.62844
-2.70777
-2.80081
-2.90257
-2.64687
-2.73058
-2.82302
-2.91605
-2.66592
-2.74782
-2.83769
-2.92694
-2.69087
-2.77198
-2.86065
-2.94864
-2.72583
-2.80775
-2.89695
-2.98558
-2.77228
-2.85669
-2.94825
-3.03938
-2.83021
-2.91864
-3.01432
-3.10988
-2.89783
-2.99155
-3.09284
-3.19465
-2.97149
-3.0715
-3.17962
-3.28918
-3.04615
-3.15305
-3.26894
-3.38742
-3.11633
-3.23037
-3.35472
-3.48285
-3.17645
-3.29755
-3.43058
-3.56841
-3.22113
-3.34863
-3.48975
-3.63632
-3.24586
-3.37849
-3.52612
-3.67934
-3.2473
-3.38338
-3.53542
-3.69269
-3.22294
-3.36044
-3.51438
-3.67299
-3.17114
-3.30803
-3.46142
-3.61886
-3.09282
-3.22693
-3.37772
-3.53221
-2.9871
-3.11686
-3.26285
-3.41204
-2.85383
-2.97696
-3.11542
-3.25647
-2.69354
-2.80737
-2.93506
-3.06463
-2.50854
-2.61028
-2.72398
-2.8387
-2.303
-2.3903
-2.48746
-2.58479
-2.08252
-2.15401
-2.23316
-2.31173
-1.85284
-1.90834
-1.96928
-2.02916
-1.61938
-1.65974
-1.70362
-1.74621
-1.38745
-1.41427
-1.44308
-1.47059
-1.162
-1.17719
-1.1931
-1.20781
-0.946891
-0.952499
-0.957667
-0.961637
-0.744091
-0.741973
-0.738631
-0.734124
-0.556422
-0.54765
-0.538068
-0.528088
-0.389238
-0.376016
-0.362261
-0.347952
-0.209457
-0.192229
-0.175292
-0.158493
125.672
31.2541
31.8467
31.8202
31.7585
31.7864
31.8549
31.884
31.9121
31.9056
31.8604
31.7871
31.6954
31.5953
31.4975
31.412
31.3475
31.311
31.3007
622.45
542.454
216.795
32.3305
31.6388
31.9775
32.0031
31.9659
31.9796
31.9624
31.9043
31.8146
31.7008
31.5742
31.4481
31.3376
31.2558
31.2117
31.2007
802.028
774.846
747.428
693.353
402.273
73.6829
32.3159
32.7441
32.2979
32.072
31.9674
31.8485
31.7063
31.5435
31.3772
31.23
31.1229
31.0683
31.0577
935.625
910.867
901.02
901.154
893.998
825.757
442.48
72.2713
33.1262
32.7248
32.1381
31.8905
31.7056
31.4961
31.2745
31.0766
30.934
30.8653
30.8559
1039.98
1025.39
1019.08
1021.23
1023.43
1024.64
1017.72
775.108
205.765
35.1013
32.6905
32.0762
31.7023
31.4203
31.1239
30.8582
30.669
30.582
30.5753
1161.53
1150.16
1140.94
1139
1137.27
1136.91
1143.28
1148.75
922.146
262.09
38.4107
33.2076
31.839
31.3041
30.8957
30.5445
30.2991
30.1913
30.1895
125.877
263.916
652.002
1159.18
1275.83
1259.06
1255.71
1260.1
1269.07
926.849
189.466
39.2165
33.012
31.2496
30.5414
30.0846
29.7855
29.6601
29.6676
-3.31255
-3.57782
10.0829
36.9259
123.491
629.187
1301
1374.01
1371.55
1341
726.303
74.1568
35.799
31.32
29.9968
29.4118
29.0817
28.9532
28.9774
-2.979
-3.11336
-3.28517
-3.64713
-4.0835
-4.41789
169.441
1046.85
1474.76
1458.74
1174.99
287.011
40.061
31.4648
29.1963
28.4692
28.1488
28.043
28.0935
-3.07537
-3.28589
-3.44917
-3.61221
-3.69993
-3.68915
-4.04989
240.345
1289.03
1539.1
1416.43
537.489
45.441
31.5631
28.1011
27.239
26.9766
26.9213
27.0069
-3.07155
-3.27036
-3.44298
-3.60818
-3.74484
-3.76292
-3.67064
-3.96105
752.534
1575.33
1481.24
774.702
80.9478
31.2589
26.7132
25.7612
25.5925
25.6068
25.7319
-3.07308
-3.26721
-3.44226
-3.59719
-3.70576
-3.71511
-3.60826
-3.89273
326.964
1467.95
1496.84
1040.45
136.304
30.7713
25.0623
24.0818
24.0472
24.1423
24.3067
-3.09196
-3.28578
-3.46362
-3.61632
-3.71475
-3.72205
-3.60379
-3.7876
140.827
1298.62
1558.92
1113.63
166.466
29.202
23.0166
22.2718
22.41
22.589
22.787
-3.12987
-3.32732
-3.51263
-3.66905
-3.76951
-3.78075
-3.6528
-3.68205
54.5027
1152.68
1565.97
1086.07
155.834
26.5283
20.9553
20.5266
20.7801
21.0197
21.2367
-3.18813
-3.39436
-3.593
-3.76438
-3.86395
-3.87515
-3.71663
-3.62911
38.7781
1056.57
1550.71
945.627
95.4728
23.5942
19.2773
18.9894
19.2427
19.5002
19.7153
-3.26672
-3.48798
-3.70677
-3.89852
-4.00129
-4.00478
-3.79433
-3.6066
63.1499
1082.13
1533.28
710.089
48.5014
20.8771
17.7968
17.5728
17.8179
18.0605
18.2575
-3.36306
-3.6057
-3.85187
-4.05881
-4.1843
-4.17765
-3.93923
-3.78259
216.526
1180.51
1465.37
610.981
36.955
18.1524
16.2312
16.2334
16.4792
16.7004
16.8758
-3.47202
-3.741
-4.01809
-4.25183
-4.40193
-4.39995
-4.2133
-4.36435
817.854
1294.92
1380.9
546.688
27.0269
15.9285
14.7856
14.983
15.2113
15.4158
15.5716
-3.5867
-3.88441
-4.1985
-4.45913
-4.62648
-4.62814
-4.47266
-4.80859
982.334
1326.91
1239.73
357.369
20.2843
14.1543
13.6958
13.8123
14.0168
14.2071
14.3452
-3.69936
-4.02628
-4.36633
-4.65668
-4.83939
-4.81799
-4.56077
-4.53488
557.206
868.54
526.522
145.46
19.1049
13.3659
12.7701
12.7274
12.9053
13.0761
13.196
-3.80159
-4.1585
-4.52499
-4.85659
-5.06188
-5.03351
2.07096
3.40626
70.4199
72.4707
31.0829
42.2311
27.144
12.7828
11.7786
11.6985
11.8682
12.0172
12.1193
-3.88372
-4.2694
-4.67811
-5.07996
-5.34311
-5.36236
69.734
428.505
132.719
28.2991
21.1481
15.1265
18.4804
12.1851
10.6831
10.7259
10.8906
11.0198
11.1058
-3.93691
-4.34367
-4.794
-5.2327
-5.57432
-5.90391
418.506
650.226
538.05
68.7984
15.1193
12.7562
10.5924
10.9451
9.79875
9.83298
9.97058
10.0751
10.1454
-3.95583
-4.37282
-4.84003
-5.25045
-5.68042
-5.93311
592.761
695.928
719.917
168.909
12.8692
10.994
9.59844
9.07544
9.06268
9.02002
9.09947
9.17211
9.22704
-3.93715
-4.35372
-4.81619
-5.19336
-5.61319
-5.30606
415.599
739.894
741.207
594.091
38.1055
10.2046
8.98053
8.41716
8.24878
8.21999
8.24675
8.29288
8.3381
-3.88058
-4.29212
-4.75108
-5.16623
-5.14213
-5.19838
14.2614
766.773
770.022
775.404
124.447
9.63686
8.32946
7.61354
7.40038
7.36313
7.37843
7.41909
7.46785
-3.789
-4.19586
-4.65695
-5.09445
-5.12305
-5.3711
-5.48046
634.71
791.378
797.181
452.641
15.611
7.02732
6.51328
6.41002
6.42893
6.48084
6.54245
6.61589
-3.66044
-4.05952
-4.52585
-5.01075
-5.30638
-3.23965
-4.16324
144.392
820.297
815.814
823.298
123.769
5.18576
4.97227
5.2464
5.42573
5.5683
5.66936
5.79811
-3.49167
-3.87535
-4.33914
-4.85679
-5.35969
-4.50753
0.495006
0.406203
630.497
842.045
834.546
184.679
1.91134
3.71794
4.03825
4.42104
4.68657
4.83894
5.02318
-3.2808
-3.63776
-4.08107
-4.60695
-5.17468
-5.68475
0.924269
9.8923
88.651
657.031
542.366
115.272
3.16173
2.40689
2.9858
3.53299
3.89271
4.09056
4.30933
-3.02983
-3.34641
-3.74343
-4.22863
-4.78153
-5.34975
-3.26746
4.53402
5.57355
58.3584
36.9435
21.8559
0.926222
1.23414
2.15271
2.82066
3.22625
3.45097
3.67031
-2.74621
-3.01128
-3.34035
-3.7412
-4.21172
-4.73059
-5.12907
1.03215
3.48964
-3.28335
-2.80776
-4.11694
-1.22759
0.680853
1.64111
2.29679
2.69621
2.92514
3.11412
-2.44109
-2.64931
-2.90068
-3.19656
-3.53344
-3.89927
-4.0897
-1.7899
-1.7449
-3.66062
-3.08093
-2.56052
-0.717896
0.553722
1.37879
1.93408
2.2884
2.49902
2.63854
-2.127
-2.2797
-2.45643
-2.65372
-2.86289
-3.07211
-3.16138
-2.70208
-2.79062
-2.63448
-1.91547
-1.25501
-0.210382
0.624061
1.24701
1.68143
1.97234
2.14831
2.23301
-1.81533
-1.91865
-2.03108
-2.1472
-2.25656
-2.34624
-2.38099
-2.27681
-2.14273
-1.7689
-1.1515
-0.55103
0.11615
0.69244
1.15083
1.4845
1.71219
1.84766
1.8835
-1.51488
-1.57705
-1.63814
-1.69257
-1.73113
-1.74249
-1.71314
-1.61931
-1.4298
-1.10329
-0.653725
-0.181913
0.292649
0.710271
1.05273
1.30753
1.48004
1.57722
1.57636
-1.23138
-1.26067
-1.28308
-1.29435
-1.28769
-1.25428
-1.18548
-1.06855
-0.88359
-0.619733
-0.294873
0.0502136
0.388293
0.690797
0.943622
1.13347
1.25945
1.32425
1.29975
-0.968167
-0.972046
-0.966585
-0.950604
-0.919928
-0.867525
-0.78538
-0.667265
-0.506198
-0.301026
-0.063877
0.182894
0.421263
0.636123
0.817094
0.953261
1.04107
1.08084
1.04378
-0.727617
-0.712813
-0.687214
-0.65579
-0.617662
-0.563639
-0.488179
-0.387622
-0.260214
-0.108181
0.0601429
0.232081
0.396251
0.543991
0.668321
0.761558
0.819685
0.842164
0.801052
-0.513238
-0.483589
-0.436718
-0.39481
-0.365765
-0.325461
-0.27021
-0.198365
-0.109879
-0.00739794
0.103442
0.21519
0.32112
0.416068
0.495815
0.555431
0.591348
0.603292
0.564964
-0.323147
-0.274564
-0.188634
-0.135775
-0.141641
-0.132097
-0.108669
-0.0742253
-0.0294594
0.0240192
0.0831396
0.1439
0.202546
0.256066
0.302087
0.337599
0.359623
0.368207
0.337204
-0.12954
-0.0667588
0.0467546
0.068718
0.0236926
0.00510512
-0.000609463
-0.00140391
0.0015045
0.00799747
0.0178084
0.0302351
0.0443036
0.0588987
0.0729729
0.0849345
0.0930043
0.100412
0.0955745
)
;

boundaryField
{
    leftWall
    {
        type            fixedFluxPressure;
        gradient        uniform 0;
        value           nonuniform List<scalar> 
50
(
1042.12
1041.23
1039.6
1037.59
1035.27
1032.56
1029.49
1026.11
1020.4
1011.6
1002.62
986.678
426.549
-1.44792
-1.01166
-1.05142
-1.0661
-1.09441
-1.12991
-1.16714
-1.2045
-1.23989
-1.27186
-1.29936
-1.32179
-1.33886
-1.35055
-1.35691
-1.358
-1.35394
-1.34481
-1.33076
-1.31195
-1.2885
-1.26053
-1.22818
-1.1916
-1.15102
-1.10665
-1.0587
-1.00751
-0.953507
-0.896775
-0.836882
-0.772696
-0.705093
-0.63715
-0.565344
-0.467249
-0.327878
)
;
    }
    rightWall
    {
        type            fixedFluxPressure;
        gradient        uniform 0;
        value           nonuniform List<scalar> 
50
(
31.4492
31.4473
31.4419
31.4327
31.4196
31.4021
31.3798
31.3523
31.3007
31.2007
31.0577
30.8559
30.5753
30.1895
29.6676
28.9774
28.0935
27.0069
25.7319
24.3067
22.787
21.2367
19.7153
18.2575
16.8758
15.5716
14.3452
13.196
12.1193
11.1058
10.1454
9.22704
8.3381
7.46785
6.61589
5.79811
5.02318
4.30933
3.67031
3.11412
2.63854
2.23301
1.8835
1.57636
1.29975
1.04378
0.801052
0.564964
0.337204
0.0955745
)
;
    }
    lowerWall
    {
        type            fixedFluxPressure;
        gradient        uniform 0;
        value           nonuniform List<scalar> 
62
(
1042.12
1045.46
1055.98
1069.22
1080.47
1088.91
1094.81
1098.88
1101.87
1104.42
1107.13
1110.67
1115.89
1123.99
1136.73
1157.01
1187.25
1229.96
1284.23
1342.34
1389.95
1399.15
1439.56
1439.56
1440.16
1455.52
1477.06
1490.4
1482.83
1430.23
1299.41
313.933
366.611
492.435
531.789
31.8198
31.8236
31.8278
31.8319
31.8366
31.8436
31.88
31.7668
31.8198
31.7962
31.7891
31.7924
31.8117
31.8401
31.8671
31.8826
31.8818
31.8606
31.8203
31.7655
31.7025
31.6381
31.5774
31.5252
31.4853
31.4598
31.4492
)
;
    }
    atmosphere
    {
        type            totalPressure;
        rho             rho;
        psi             none;
        gamma           1;
        p0              uniform 0;
        value           nonuniform List<scalar> 
46
(
-0.298744
-0.445576
-0.415944
-0.405396
-0.397901
-0.392028
-0.387034
-0.382428
-0.377855
-0.373035
-0.367702
-0.361561
-0.354283
-0.345523
-0.334946
-0.32222
-0.306996
-0.288866
-0.267362
-0.242004
-0.212377
-0.178208
-0.139511
-0.108489
-0.0916638
-0.0782741
-0.0677946
-0.0528506
-0.0286158
-0.0119606
-0.000968748
0
0
0
0
0
0
0
0
0
0
0
0
0
0
0
)
;
    }
    defaultFaces
    {
        type            empty;
    }
}


// ************************************************************************* //
