/*--------------------------------*- C++ -*----------------------------------*\
| =========                 |                                                 |
| \\      /  F ield         | OpenFOAM: The Open Source CFD Toolbox           |
|  \\    /   O peration     | Version:  v2012                                 |
|   \\  /    A nd           | Website:  www.openfoam.com                      |
|    \\/     M anipulation  |                                                 |
\*---------------------------------------------------------------------------*/
FoamFile
{
    version     2.0;
    format      ascii;
    class       surfaceScalarField;
    location    "0.35";
    object      phi;
}
// * * * * * * * * * * * * * * * * * * * * * * * * * * * * * * * * * * * * * //

dimensions      [0 3 -1 0 0 0 0];
oriented        oriented;


internalField   nonuniform List<scalar> 
4432
(
-5.10903e-06
5.10903e-06
-4.80665e-06
-3.02378e-07
-1.04422e-06
-3.76243e-06
3.7878e-06
-4.83202e-06
8.88681e-06
-5.09901e-06
1.38299e-05
-4.94308e-06
1.84907e-05
-4.6608e-06
2.2864e-05
-4.37336e-06
2.69742e-05
-4.11016e-06
3.08381e-05
-3.86385e-06
3.44471e-05
-3.60905e-06
3.77554e-05
-3.30827e-06
4.06675e-05
-2.91216e-06
4.30118e-05
-2.34424e-06
4.44994e-05
-1.48761e-06
4.45316e-05
-3.22409e-08
4.20295e-05
2.50217e-06
3.6149e-05
5.88048e-06
2.62434e-05
9.90557e-06
1.26747e-05
1.35687e-05
-2.70442e-06
1.53791e-05
-1.25766e-05
9.8722e-06
-1.25766e-05
-2.6718e-06
7.78083e-06
-8.68224e-07
-2.10595e-06
2.79969e-06
-7.43033e-06
7.43525e-06
-9.46759e-06
1.22832e-05
-9.94692e-06
1.70467e-05
-9.70657e-06
2.16054e-05
-9.2195e-06
2.59299e-05
-8.6979e-06
3.00232e-05
-8.20348e-06
3.38855e-05
-7.72608e-06
3.74959e-05
-7.21946e-06
4.08013e-05
-6.61375e-06
4.3705e-05
-5.81584e-06
4.60549e-05
-4.6941e-06
4.76285e-05
-3.06125e-06
4.81931e-05
-5.96789e-07
4.74691e-05
3.22613e-06
4.45719e-05
8.77773e-06
3.8296e-05
1.61814e-05
2.75686e-05
2.42961e-05
1.31696e-05
2.97781e-05
1.0543e-06
2.19875e-05
-1.15223e-05
-4.61931e-07
8.24276e-06
1.79937e-06
-4.36725e-06
5.5258e-06
-1.11568e-05
9.95514e-06
-1.38969e-05
1.4568e-05
-1.45598e-05
1.9122e-05
-1.42605e-05
2.35154e-05
-1.36129e-05
2.77156e-05
-1.28981e-05
3.17143e-05
-1.22022e-05
3.55004e-05
-1.15122e-05
3.90448e-05
-1.07638e-05
4.229e-05
-9.85903e-06
4.51417e-05
-8.66747e-06
4.74603e-05
-7.01268e-06
4.90492e-05
-4.65022e-06
4.96795e-05
-1.22704e-06
4.91213e-05
3.78427e-06
4.697e-05
1.09291e-05
4.26103e-05
2.0541e-05
3.51559e-05
3.17505e-05
2.39865e-05
4.09475e-05
1.08361e-05
3.51379e-05
-6.86255e-07
1.17612e-06
7.06664e-06
3.8656e-06
-7.05673e-06
7.68845e-06
-1.49796e-05
1.20066e-05
-1.82151e-05
1.64352e-05
-1.89884e-05
2.08002e-05
-1.86255e-05
2.503e-05
-1.78428e-05
2.90981e-05
-1.69662e-05
3.29913e-05
-1.60954e-05
3.66909e-05
-1.52118e-05
4.01617e-05
-1.42346e-05
4.33443e-05
-1.30416e-05
4.61473e-05
-1.14705e-05
4.84434e-05
-9.30873e-06
5.00649e-05
-6.27174e-06
5.08173e-05
-1.97939e-06
5.05031e-05
4.09844e-06
4.88826e-05
1.25496e-05
4.56247e-05
2.37989e-05
4.01167e-05
3.72585e-05
3.12819e-05
4.97824e-05
1.80131e-05
4.84067e-05
1.73269e-05
2.15089e-06
4.91575e-06
5.41132e-06
-1.03172e-05
9.42507e-06
-1.89933e-05
1.37078e-05
-2.24978e-05
1.80004e-05
-2.32809e-05
2.2204e-05
-2.28292e-05
2.6284e-05
-2.19227e-05
3.02254e-05
-2.09077e-05
3.40144e-05
-1.98843e-05
3.76276e-05
-1.8825e-05
4.10263e-05
-1.76333e-05
4.41501e-05
-1.61654e-05
4.69128e-05
-1.42333e-05
4.92e-05
-1.1596e-05
5.08717e-05
-7.94341e-06
5.17723e-05
-2.88003e-06
5.17524e-05
4.11834e-06
5.0657e-05
1.3645e-05
4.82751e-05
2.61808e-05
4.41105e-05
4.14231e-05
3.69199e-05
5.69729e-05
2.38995e-05
6.14271e-05
4.12264e-05
2.72121e-06
2.19454e-06
6.55727e-06
-1.41532e-05
1.08095e-05
-2.32455e-05
1.51009e-05
-2.67892e-05
1.92911e-05
-2.74711e-05
2.33572e-05
-2.68953e-05
2.73026e-05
-2.58681e-05
3.11263e-05
-2.47313e-05
3.48157e-05
-2.35738e-05
3.83453e-05
-2.23546e-05
4.16743e-05
-2.09622e-05
4.47432e-05
-1.92343e-05
4.74721e-05
-1.69621e-05
4.97602e-05
-1.38841e-05
5.14937e-05
-9.67687e-06
5.25572e-05
-3.9435e-06
5.28527e-05
3.82276e-06
5.2292e-05
1.42058e-05
5.07418e-05
2.7731e-05
4.77733e-05
4.43916e-05
4.2086e-05
6.26603e-05
2.96027e-05
7.39103e-05
7.08291e-05
3.11541e-06
-9.20871e-07
7.44001e-06
-1.84778e-05
1.19177e-05
-2.77232e-05
1.62273e-05
-3.10988e-05
2.03303e-05
-3.15742e-05
2.42738e-05
-3.08387e-05
2.80961e-05
-2.96905e-05
3.18092e-05
-2.84444e-05
3.54029e-05
-2.71674e-05
3.88503e-05
-2.58021e-05
4.211e-05
-2.42219e-05
4.51253e-05
-2.22496e-05
4.78227e-05
-1.96595e-05
5.01158e-05
-1.61772e-05
5.19155e-05
-1.14765e-05
5.31462e-05
-5.17423e-06
5.37634e-05
3.20553e-06
5.37476e-05
1.42216e-05
5.3054e-05
2.84246e-05
5.137e-05
4.60756e-05
4.75494e-05
6.64808e-05
3.63577e-05
8.51021e-05
0.000107187
3.45067e-06
-4.37154e-06
8.16851e-06
-2.31957e-05
1.28251e-05
-3.23798e-05
1.71361e-05
-3.54098e-05
2.11504e-05
-3.55885e-05
2.49764e-05
-3.46647e-05
2.86818e-05
-3.33959e-05
3.22886e-05
-3.20512e-05
3.5788e-05
-3.06668e-05
3.91525e-05
-2.91665e-05
4.23412e-05
-2.74106e-05
4.53006e-05
-2.5209e-05
4.79651e-05
-2.23239e-05
5.02614e-05
-1.84736e-05
5.2124e-05
-1.33391e-05
5.35153e-05
-6.56558e-06
5.44447e-05
2.27619e-06
5.4969e-05
1.36973e-05
5.51632e-05
2.82304e-05
5.49469e-05
4.62919e-05
5.36019e-05
6.78259e-05
4.48297e-05
9.38743e-05
0.000152016
-2.26815e-06
2.26815e-06
-1.16942e-05
9.42598e-06
-1.78415e-05
6.14731e-06
-1.91205e-05
1.27899e-06
-1.68054e-05
-2.31508e-06
-1.23038e-05
-4.50167e-06
-6.60792e-06
-5.6958e-06
-3.38147e-07
-6.26982e-06
5.86147e-06
-6.1996e-06
1.13484e-05
-5.48692e-06
1.56348e-05
-4.28664e-06
1.83452e-05
-2.71046e-06
1.92687e-05
-9.23543e-07
1.84129e-05
8.55668e-07
1.6007e-05
2.40592e-06
1.24011e-05
3.60582e-06
8.00892e-06
4.39221e-06
3.5068e-06
4.50222e-06
3.50673e-06
-6.5708e-06
8.83907e-06
-1.54553e-05
1.83104e-05
-1.9644e-05
1.0336e-05
-1.96828e-05
1.31771e-06
-1.70608e-05
-4.93695e-06
-1.26164e-05
-8.94613e-06
-7.04647e-06
-1.12657e-05
-9.82051e-07
-1.23343e-05
5.02936e-06
-1.22113e-05
1.04131e-05
-1.08707e-05
1.47121e-05
-8.58576e-06
1.7575e-05
-5.57357e-06
1.88173e-05
-2.16585e-06
1.84171e-05
1.25578e-06
1.64368e-05
4.38631e-06
1.31101e-05
6.93239e-06
8.84568e-06
8.65653e-06
4.23807e-06
9.11009e-06
7.74479e-06
-8.94157e-06
1.77807e-05
-1.70845e-05
2.64533e-05
-2.00416e-05
1.32931e-05
-1.96382e-05
9.14264e-07
-1.68679e-05
-7.70719e-06
-1.24575e-05
-1.33566e-05
-6.98836e-06
-1.67348e-05
-1.08072e-06
-1.8242e-05
4.76529e-06
-1.80575e-05
1.00193e-05
-1.61247e-05
1.42508e-05
-1.28174e-05
1.71373e-05
-8.46016e-06
1.84689e-05
-3.49741e-06
1.81711e-05
1.5534e-06
1.63169e-05
6.24048e-06
1.31556e-05
1.00938e-05
9.09092e-06
1.27215e-05
4.59877e-06
1.36021e-05
1.23436e-05
-1.01038e-05
2.78845e-05
-1.83191e-05
3.46687e-05
-2.03253e-05
1.52994e-05
-1.9484e-05
7.30387e-08
-1.6535e-05
-1.06561e-05
-1.21055e-05
-1.77861e-05
-6.66328e-06
-2.2177e-05
-8.22799e-07
-2.40824e-05
4.95225e-06
-2.38327e-05
1.01428e-05
-2.13152e-05
1.43287e-05
-1.70033e-05
1.72111e-05
-1.13426e-05
1.85802e-05
-4.86641e-06
1.83404e-05
1.79341e-06
1.65501e-05
8.03077e-06
1.34509e-05
1.31929e-05
9.43381e-06
1.67386e-05
4.89801e-06
1.81377e-05
1.72415e-05
-1.02777e-05
3.81622e-05
-1.91838e-05
4.35749e-05
-2.02199e-05
1.63356e-05
-1.89894e-05
-1.15744e-06
-1.59117e-05
-1.37338e-05
-1.14883e-05
-2.22095e-05
-6.05041e-06
-2.7615e-05
-2.26857e-07
-2.9906e-05
5.55296e-06
-2.96127e-05
1.07494e-05
-2.65116e-05
1.49282e-05
-2.11819e-05
1.78017e-05
-1.4216e-05
1.91683e-05
-6.23305e-06
1.89247e-05
2.03688e-06
1.71168e-05
9.83868e-06
1.39726e-05
1.63371e-05
9.86917e-06
2.08419e-05
5.16925e-06
2.28377e-05
2.24108e-05
-9.27147e-06
4.74337e-05
-1.9171e-05
5.34746e-05
-1.88585e-05
1.60233e-05
-1.75092e-05
-2.50671e-06
-1.45407e-05
-1.67024e-05
-1.03311e-05
-2.64192e-05
-4.99373e-06
-3.29524e-05
7.77514e-07
-3.56772e-05
6.59859e-06
-3.54337e-05
1.18547e-05
-3.17677e-05
1.60651e-05
-2.53924e-05
1.89343e-05
-1.70854e-05
2.02672e-05
-7.56578e-06
1.99572e-05
2.34671e-06
1.80419e-05
1.1754e-05
1.47393e-05
1.96398e-05
1.04219e-05
2.51592e-05
5.45349e-06
2.78062e-05
2.78644e-05
-5.54871e-06
5.29824e-05
-1.61916e-05
6.41177e-05
-1.41329e-05
1.39647e-05
-1.35523e-05
-3.0874e-06
-1.13837e-05
-1.8871e-05
-8.03754e-06
-2.97655e-05
-3.16367e-06
-3.78263e-05
2.37889e-06
-4.12197e-05
8.19896e-06
-4.12539e-05
1.35354e-05
-3.7104e-05
1.7802e-05
-2.96589e-05
2.06715e-05
-1.99551e-05
2.19439e-05
-8.83822e-06
2.15055e-05
2.78526e-06
1.93893e-05
1.38702e-05
1.58088e-05
2.32203e-05
1.11452e-05
2.98228e-05
5.79355e-06
3.3158e-05
3.3658e-05
9.21977e-06
4.37627e-05
-5.18419e-06
7.85218e-05
-1.02244e-06
9.80299e-06
-4.06326e-06
-4.66444e-08
-4.50681e-06
-1.84275e-05
-3.42577e-06
-3.08466e-05
1.68325e-07
-4.14205e-05
4.92216e-06
-4.59736e-05
1.05122e-05
-4.68439e-05
1.58953e-05
-4.24871e-05
2.02442e-05
-3.40077e-05
2.31378e-05
-2.28486e-05
2.43327e-05
-1.00331e-05
2.36997e-05
3.41825e-06
2.12753e-05
1.62948e-05
1.7282e-05
2.72137e-05
1.21236e-05
3.49812e-05
6.24119e-06
3.90404e-05
3.98991e-05
8.35551e-06
-1.2727e-05
1.95575e-05
-3.43976e-05
2.98544e-05
-4.26768e-05
3.88817e-05
-4.44371e-05
4.70766e-05
-4.37835e-05
5.48286e-05
-4.24167e-05
6.23443e-05
-4.09115e-05
6.96861e-05
-3.93931e-05
7.68331e-05
-3.78138e-05
8.37234e-05
-3.60568e-05
9.02743e-05
-3.39616e-05
9.63861e-05
-3.13208e-05
0.000101944
-2.78816e-05
0.000106832
-2.33622e-05
0.00011098
-1.7487e-05
0.000114424
-1.00096e-05
0.000117351
-6.50051e-07
0.000120134
1.09144e-05
0.000123391
2.49726e-05
0.000128011
4.16717e-05
0.00013504
6.07968e-05
0.000147582
8.13326e-05
0.000108038
0.00019156
1.01879e-05
-2.29149e-05
2.27673e-05
-4.6977e-05
3.31219e-05
-5.30314e-05
4.15207e-05
-5.28358e-05
4.89915e-05
-5.12543e-05
5.6129e-05
-4.95542e-05
6.31524e-05
-4.7935e-05
7.0089e-05
-4.63297e-05
7.68841e-05
-4.46088e-05
8.34591e-05
-4.26318e-05
8.97348e-05
-4.02373e-05
9.563e-05
-3.72161e-05
0.00010106
-3.33111e-05
0.000105946
-2.82483e-05
0.000110273
-2.18145e-05
0.000114191
-1.3927e-05
0.000118036
-4.49575e-06
0.000122371
6.57939e-06
0.00012804
1.93036e-05
0.000136399
3.33132e-05
0.000149482
4.77138e-05
0.000169541
6.12729e-05
7.63291e-05
0.000201251
1.31607e-05
-3.60757e-05
2.75925e-05
-6.14087e-05
3.68391e-05
-6.2278e-05
4.36881e-05
-5.96848e-05
5.00462e-05
-5.76124e-05
5.64684e-05
-5.59764e-05
6.29984e-05
-5.4465e-05
6.95457e-05
-5.28771e-05
7.59905e-05
-5.10536e-05
8.22273e-05
-4.88686e-05
8.81773e-05
-4.61872e-05
9.37784e-05
-4.28172e-05
9.8978e-05
-3.85108e-05
0.00010373
-3.30001e-05
0.000108044
-2.61284e-05
0.000112151
-1.8034e-05
0.000116439
-8.78389e-06
0.000121497
1.52138e-06
0.000127923
1.28777e-05
0.000136755
2.44805e-05
0.000149059
3.54107e-05
0.000165087
4.5244e-05
5.37526e-05
0.000187664
2.05112e-05
-5.65868e-05
3.52318e-05
-7.61294e-05
4.01904e-05
-6.72366e-05
4.44688e-05
-6.39632e-05
4.97257e-05
-6.28692e-05
5.56338e-05
-6.18845e-05
6.18214e-05
-6.06526e-05
6.80547e-05
-5.91104e-05
7.41614e-05
-5.71604e-05
8.00184e-05
-5.47256e-05
8.55426e-05
-5.17115e-05
9.06826e-05
-4.79571e-05
9.54297e-05
-4.32579e-05
9.98128e-05
-3.73832e-05
0.000103889
-3.02043e-05
0.000107994
-2.21393e-05
0.000112553
-1.33424e-05
0.000117912
-3.83769e-06
0.00012462
6.16914e-06
0.000133313
1.57879e-05
0.00014471
2.40133e-05
0.000158712
3.12418e-05
3.67117e-05
0.000175753
3.69383e-05
-9.35251e-05
4.35804e-05
-8.27715e-05
4.08659e-05
-6.45222e-05
4.31372e-05
-6.62345e-05
4.81231e-05
-6.78551e-05
5.4001e-05
-6.77624e-05
6.00653e-05
-6.67168e-05
6.6058e-05
-6.51031e-05
7.18105e-05
-6.29129e-05
7.71913e-05
-6.01064e-05
8.20948e-05
-5.6615e-05
8.64599e-05
-5.23222e-05
9.03238e-05
-4.71218e-05
9.3872e-05
-4.09314e-05
9.73232e-05
-3.36554e-05
0.000101284
-2.60999e-05
0.000106296
-1.8355e-05
0.000112889
-1.04304e-05
0.00012103
-1.97192e-06
0.000130529
6.2888e-06
0.000141096
1.34464e-05
0.00015303
1.9308e-05
2.3003e-05
0.000166739
4.26005e-05
-0.000136126
3.72502e-05
-7.74211e-05
3.66991e-05
-6.39711e-05
4.12162e-05
-7.07515e-05
4.70685e-05
-7.37074e-05
5.30117e-05
-7.37055e-05
5.88727e-05
-7.25779e-05
6.45323e-05
-7.07626e-05
6.98822e-05
-6.82628e-05
7.47805e-05
-6.50047e-05
7.90719e-05
-6.09064e-05
8.2668e-05
-5.59183e-05
8.56353e-05
-5.0089e-05
8.83131e-05
-4.36091e-05
9.12029e-05
-3.65452e-05
9.44948e-05
-2.93918e-05
9.87096e-05
-2.25698e-05
0.0001049
-1.66209e-05
0.000114594
-1.16656e-05
0.000126491
-5.60813e-06
0.000138008
1.92908e-06
0.000150002
7.31354e-06
9.99882e-06
0.000163007
-3.9203e-06
-0.000132205
1.04485e-05
-9.17899e-05
2.66329e-05
-8.01554e-05
3.85413e-05
-8.26599e-05
4.96985e-05
-8.48646e-05
6.02491e-05
-8.42561e-05
7.00482e-05
-8.2377e-05
7.91734e-05
-7.98879e-05
8.7749e-05
-7.68384e-05
9.58609e-05
-7.31165e-05
0.000103571
-6.86165e-05
0.000110927
-6.32746e-05
0.000117959
-5.71203e-05
0.00012462
-5.02699e-05
0.000130923
-4.28489e-05
0.000136652
-3.51205e-05
0.000141389
-2.73067e-05
0.000144175
-1.94066e-05
0.000143903
-1.13934e-05
0.000140231
-1.93687e-06
0.000139538
2.62221e-06
0.000148479
-1.62761e-06
-3.57504e-06
0.000162053
-1.36838e-05
-0.000118521
5.65132e-06
-0.000111125
2.59718e-05
-0.000100476
4.1276e-05
-9.7964e-05
5.35235e-05
-9.7112e-05
6.4598e-05
-9.53307e-05
7.50413e-05
-9.28203e-05
8.50024e-05
-8.9849e-05
9.45844e-05
-8.64204e-05
0.0001039
-8.2432e-05
0.00011306
-7.77769e-05
0.000122167
-7.23807e-05
0.000131277
-6.62306e-05
0.000140389
-5.93821e-05
0.000149458
-5.19172e-05
0.000158334
-4.39964e-05
0.000166791
-3.57636e-05
0.000174663
-2.72789e-05
0.000181681
-1.84117e-05
0.000189681
-9.9362e-06
0.000198772
-6.46867e-06
0.00020509
-7.9462e-06
-7.70065e-06
0.000209216
1.08992e-07
-0.00011863
1.24891e-05
-0.000123505
2.81556e-05
-0.000116142
4.18874e-05
-0.000111696
5.36491e-05
-0.000108874
6.44511e-05
-0.000106133
7.47694e-05
-0.000103139
8.47815e-05
-9.98611e-05
9.45903e-05
-9.62292e-05
0.000104295
-9.21367e-05
0.000114002
-8.74842e-05
0.000123823
-8.22011e-05
0.000133854
-7.62613e-05
0.000144161
-6.96894e-05
0.000154791
-6.25474e-05
0.000165749
-5.49542e-05
0.000177039
-4.70539e-05
0.000188768
-3.90074e-05
0.000201368
-3.10116e-05
0.000215559
-2.41278e-05
0.000229543
-2.04527e-05
0.000240927
-1.933e-05
-1.69072e-05
0.000250133
5.57436e-06
-0.000124205
1.63698e-05
-0.000134301
2.82509e-05
-0.000128023
3.96884e-05
-0.000123133
5.03174e-05
-0.000119503
6.04291e-05
-0.000116244
7.02631e-05
-0.000112973
7.99414e-05
-0.000109539
8.95455e-05
-0.000105833
9.91573e-05
-0.000101748
0.000108871
-9.7198e-05
0.000118796
-9.21258e-05
0.000129048
-8.65139e-05
0.000139746
-8.03867e-05
0.000151006
-7.38079e-05
0.00016294
-6.68878e-05
0.000175664
-5.97778e-05
0.000189338
-5.26821e-05
0.000204241
-4.59146e-05
0.000220288
-4.01744e-05
0.000236139
-3.63037e-05
0.000250521
-3.37114e-05
-3.00939e-05
0.000263707
7.14085e-06
-0.000131346
1.63394e-05
-0.000143499
2.58857e-05
-0.00013757
3.54589e-05
-0.000132707
4.4831e-05
-0.000128875
5.40256e-05
-0.000125439
6.31228e-05
-0.00012207
7.21835e-05
-0.0001186
8.12623e-05
-0.000114912
9.04253e-05
-0.000110911
9.97568e-05
-0.000106529
0.000109362
-0.000101731
0.000119367
-9.65184e-05
0.00012991
-9.09299e-05
0.000141143
-8.50405e-05
0.000153216
-7.89614e-05
0.000166279
-7.28408e-05
0.000180468
-6.68706e-05
0.000195877
-6.13238e-05
0.000212291
-5.65889e-05
0.000228959
-5.29711e-05
0.000245275
-5.00278e-05
-4.63842e-05
0.000261565
7.51238e-06
-0.000138858
1.46335e-05
-0.00015062
2.22529e-05
-0.000145189
3.02485e-05
-0.000140702
3.83703e-05
-0.000136996
4.65322e-05
-0.000133601
5.47298e-05
-0.000130267
6.29821e-05
-0.000126852
7.1323e-05
-0.000123253
7.98063e-05
-0.000119395
8.85087e-05
-0.000115232
9.75314e-05
-0.000110754
0.000106999
-0.000105986
0.000117055
-0.000100986
0.000127855
-9.584e-05
0.000139553
-9.066e-05
0.000152293
-8.5581e-05
0.000166186
-8.0763e-05
0.000181261
-7.63991e-05
0.000197365
-7.26932e-05
0.000214123
-6.97287e-05
0.000231265
-6.717e-05
-6.41047e-05
0.000248986
6.90057e-06
-0.000145759
1.22079e-05
-0.000155927
1.82637e-05
-0.000151245
2.48856e-05
-0.000147324
3.18005e-05
-0.000143911
3.88862e-05
-0.000140687
4.61028e-05
-0.000137484
5.34473e-05
-0.000134197
6.09415e-05
-0.000130747
6.86316e-05
-0.000127085
7.65887e-05
-0.000123189
8.49093e-05
-0.000119075
9.37127e-05
-0.00011479
0.000103136
-0.000110409
0.000113327
-0.00010603
0.000124429
-0.000101762
0.000136571
-9.77237e-05
0.000149849
-9.40408e-05
0.000164291
-9.08406e-05
0.000179821
-8.82236e-05
0.000196273
-8.61801e-05
0.000213543
-8.44402e-05
-8.23433e-05
0.000231781
5.76422e-06
-0.000151523
9.66445e-06
-0.000159828
1.44659e-05
-0.000156046
1.98833e-05
-0.000152741
2.56632e-05
-0.000149691
3.16894e-05
-0.000146713
3.79153e-05
-0.00014371
4.43314e-05
-0.000140613
5.09554e-05
-0.000137371
5.78305e-05
-0.00013396
6.50246e-05
-0.000130383
7.26297e-05
-0.00012668
8.07581e-05
-0.000122918
8.95372e-05
-0.000119189
9.91011e-05
-0.000115594
0.00010958
-0.000112241
0.000121089
-0.000109232
0.000133713
-0.000106665
0.000147493
-0.00010462
0.000162412
-0.000103143
0.000178415
-0.000102184
0.000195494
-0.000101519
-0.000100645
0.000213795
4.47411e-06
-0.000155997
7.35398e-06
-0.000162707
1.11385e-05
-0.000159831
1.55028e-05
-0.000157106
2.02459e-05
-0.000154434
2.52772e-05
-0.000151744
3.05588e-05
-0.000148991
3.60846e-05
-0.000146139
4.18745e-05
-0.000143161
4.79724e-05
-0.000140058
5.4445e-05
-0.000136856
6.13802e-05
-0.000133615
6.88829e-05
-0.000130421
7.70694e-05
-0.000127375
8.60599e-05
-0.000124585
9.59692e-05
-0.00012215
0.000106898
-0.000120161
0.000118922
-0.00011869
0.000132091
-0.000117789
0.00014642
-0.000117472
0.000161917
-0.000117681
0.000178625
-0.000118226
-0.000118724
0.000196704
3.28247e-06
-0.000159279
5.42926e-06
-0.000164854
8.38001e-06
-0.000162781
1.18364e-05
-0.000160562
1.56609e-05
-0.000158259
1.97946e-05
-0.000155878
2.42149e-05
-0.000153412
2.89249e-05
-0.000150849
3.39501e-05
-0.000148187
3.93376e-05
-0.000145445
4.51538e-05
-0.000142672
5.14825e-05
-0.000139944
5.84205e-05
-0.000137359
6.60721e-05
-0.000135027
7.45422e-05
-0.000133055
8.39289e-05
-0.000131537
9.43164e-05
-0.000130548
0.00010577
-0.000130143
0.000118335
-0.000130353
0.000132043
-0.00013118
0.000146932
-0.00013257
0.000163082
-0.000134376
-0.000136313
0.000180671
2.3111e-06
-0.00016159
3.92483e-06
-0.000166468
6.18903e-06
-0.000165046
8.87734e-06
-0.000163251
1.19108e-05
-0.000161293
1.526e-05
-0.000159227
1.89197e-05
-0.000157071
2.2904e-05
-0.000154833
2.72458e-05
-0.000152528
3.19953e-05
-0.000150195
3.72186e-05
-0.000147895
4.29945e-05
-0.00014572
4.94103e-05
-0.000143775
5.65568e-05
-0.000142174
6.45221e-05
-0.00014102
7.33853e-05
-0.000140401
8.32115e-05
-0.000140375
9.40494e-05
-0.000140981
0.000105934
-0.000142238
0.0001189
-0.000144146
0.000133
-0.000146669
0.000148338
-0.000149714
-0.000153088
0.000165113
1.59028e-06
-0.000163181
2.80847e-06
-0.000167686
4.51229e-06
-0.00016675
6.56488e-06
-0.000165303
8.9337e-06
-0.000163661
1.1614e-05
-0.000161907
1.46163e-05
-0.000160074
1.79658e-05
-0.000158182
2.17017e-05
-0.000156264
2.5877e-05
-0.00015437
3.05558e-05
-0.000152574
3.58102e-05
-0.000150974
4.17166e-05
-0.000149681
4.83504e-05
-0.000148807
5.57812e-05
-0.000148451
6.40676e-05
-0.000148687
7.32532e-05
-0.00014956
8.33669e-05
-0.000151094
9.4429e-05
-0.000153301
0.000106466
-0.000156183
0.000119534
-0.000159738
0.000133749
-0.000163929
-0.000168659
0.00014932
1.10038e-06
-0.000164281
2.01824e-06
-0.000168604
3.2742e-06
-0.000168006
4.81234e-06
-0.000166841
6.6338e-06
-0.000165483
8.75308e-06
-0.000164027
1.11941e-05
-0.000162515
1.39908e-05
-0.000160979
1.71876e-05
-0.000159461
2.08378e-05
-0.00015802
2.50017e-05
-0.000156738
2.97429e-05
-0.000155715
3.51252e-05
-0.000155063
4.12077e-05
-0.00015489
4.80405e-05
-0.000155284
5.5661e-05
-0.000156307
6.40909e-05
-0.00015799
7.33379e-05
-0.000160341
8.34038e-05
-0.000163366
9.43013e-05
-0.000167081
0.000106078
-0.000171514
0.000118845
-0.000176696
-0.000182619
0.000132805
7.97924e-07
-0.000165079
1.48592e-06
-0.000169292
2.39295e-06
-0.000168913
3.52296e-06
-0.000167971
4.90007e-06
-0.00016686
6.55319e-06
-0.00016568
8.5165e-06
-0.000164478
1.08303e-05
-0.000163293
1.35413e-05
-0.000162172
1.67011e-05
-0.00016118
2.03638e-05
-0.000160401
2.45833e-05
-0.000159935
2.94095e-05
-0.00015989
3.48847e-05
-0.000160365
4.10402e-05
-0.00016144
4.78927e-05
-0.00016316
5.54431e-05
-0.00016554
6.36781e-05
-0.000168576
7.25794e-05
-0.000172268
8.21397e-05
-0.000176641
9.23869e-05
-0.000181761
0.000103412
-0.000187722
-0.000194602
0.000115396
6.30919e-07
-0.00016571
1.14603e-06
-0.000169807
1.788e-06
-0.000169555
2.59935e-06
-0.000168783
3.61872e-06
-0.000167879
4.88564e-06
-0.000166947
6.44115e-06
-0.000166034
8.32901e-06
-0.000165181
1.05957e-05
-0.000164439
1.32886e-05
-0.000163873
1.6454e-05
-0.000163566
2.01348e-05
-0.000163616
2.43667e-05
-0.000164121
2.91759e-05
-0.000165174
3.45759e-05
-0.00016684
4.05649e-05
-0.000169149
4.71249e-05
-0.0001721
5.42234e-05
-0.000175675
6.18206e-05
-0.000179865
6.98846e-05
-0.000184705
7.84143e-05
-0.000190291
8.74679e-05
-0.000196775
-0.000204322
9.71878e-05
5.42228e-07
-0.000166252
9.32799e-07
-0.000170198
1.38401e-06
-0.000170006
1.94962e-06
-0.000169348
2.68188e-06
-0.000168612
3.62776e-06
-0.000167893
4.83244e-06
-0.000167238
6.34026e-06
-0.000166689
8.19495e-06
-0.000166294
1.04379e-05
-0.000166116
1.31063e-05
-0.000166235
1.62312e-05
-0.000166741
1.98346e-05
-0.000167725
2.39274e-05
-0.000169267
2.85075e-05
-0.00017142
3.35572e-05
-0.000174199
3.90425e-05
-0.000177586
4.49134e-05
-0.000181546
5.11092e-05
-0.000186061
5.75705e-05
-0.000191166
6.42612e-05
-0.000196982
7.11974e-05
-0.000203712
-0.0002116
7.84753e-05
5.03333e-07
-0.000166756
8.15766e-07
-0.00017051
1.11961e-06
-0.00017031
1.4933e-06
-0.000169722
1.99335e-06
-0.000169112
2.67023e-06
-0.00016857
3.56959e-06
-0.000168138
4.73455e-06
-0.000167854
6.204e-06
-0.000167763
8.01174e-06
-0.000167924
1.01851e-05
-0.000168408
1.2743e-05
-0.000169299
1.56943e-05
-0.000170676
1.90365e-05
-0.000172609
2.27536e-05
-0.000175137
2.6815e-05
-0.00017826
3.11737e-05
-0.000181944
3.5765e-05
-0.000186137
4.0509e-05
-0.000190805
4.53189e-05
-0.000195976
5.01215e-05
-0.000201784
5.48874e-05
-0.000208478
-0.000216373
5.96607e-05
4.87711e-07
-0.000167243
7.4147e-07
-0.000170764
9.38542e-07
-0.000170507
1.16163e-06
-0.000169945
1.47105e-06
-0.000169421
1.91959e-06
-0.000169018
2.55091e-06
-0.000168769
3.40428e-06
-0.000168707
4.51249e-06
-0.000168871
5.90093e-06
-0.000169312
7.58654e-06
-0.000170094
9.5765e-06
-0.000171289
1.18673e-05
-0.000172967
1.44444e-05
-0.000175186
1.72801e-05
-0.000177972
2.03335e-05
-0.000181314
2.35477e-05
-0.000185159
2.68466e-05
-0.000189436
3.0134e-05
-0.000194092
3.32987e-05
-0.000199141
3.62323e-05
-0.000204718
3.88608e-05
-0.000211106
-0.000218691
4.11792e-05
4.76715e-07
-0.00016772
6.85585e-07
-0.000170973
7.99122e-07
-0.000170621
9.0112e-07
-0.000170047
1.05357e-06
-0.000169574
1.30341e-06
-0.000169268
1.69609e-06
-0.000169162
2.26513e-06
-0.000169276
3.03563e-06
-0.000169642
4.0239e-06
-0.0001703
5.23662e-06
-0.000171307
6.66984e-06
-0.000172722
8.30885e-06
-0.000174606
1.01268e-05
-0.000177004
1.20876e-05
-0.000179933
1.4142e-05
-0.000183368
1.62257e-05
-0.000187242
1.8255e-05
-0.000191465
2.01216e-05
-0.000195959
2.16944e-05
-0.000200714
2.2834e-05
-0.000205857
2.34244e-05
-0.000211696
-0.000218683
2.34164e-05
4.60586e-07
-0.000168181
6.27827e-07
-0.000171141
6.70223e-07
-0.000170663
6.68944e-07
-0.000170046
6.83762e-07
-0.000169588
7.63829e-07
-0.000169348
9.45136e-07
-0.000169343
1.25567e-06
-0.000169587
1.71315e-06
-0.000170099
2.32507e-06
-0.000170912
3.08786e-06
-0.000172069
3.98722e-06
-0.000173621
4.99775e-06
-0.000175617
6.08412e-06
-0.000178091
7.20017e-06
-0.000181049
8.29061e-06
-0.000184458
9.28659e-06
-0.000188238
1.00997e-05
-0.000192278
1.06145e-05
-0.000196473
1.06851e-05
-0.000200784
1.01465e-05
-0.000205319
8.84651e-06
-0.000210396
-0.000216536
6.69936e-06
4.34195e-07
-0.000168615
5.55945e-07
-0.000171262
5.32456e-07
-0.000170639
4.40565e-07
-0.000169954
3.37256e-07
-0.000169485
2.66164e-07
-0.000169277
2.58894e-07
-0.000169336
3.36084e-07
-0.000169664
5.07387e-07
-0.00017027
7.71288e-07
-0.000171176
1.11513e-06
-0.000172413
1.51505e-06
-0.000174021
1.93631e-06
-0.000176038
2.33448e-06
-0.000178489
2.65667e-06
-0.000181371
2.84171e-06
-0.000184643
2.81762e-06
-0.000188214
2.49434e-06
-0.000191955
1.75358e-06
-0.000195733
4.40985e-07
-0.000199472
-1.62989e-06
-0.000203248
-4.65395e-06
-0.000207372
-0.000212427
-8.7636e-06
3.95737e-07
-0.000169011
4.63621e-07
-0.00017133
3.74264e-07
-0.00017055
1.99294e-07
-0.000169779
-8.67348e-09
-0.000169277
-2.11804e-07
-0.000169074
-3.84934e-07
-0.000169163
-5.14961e-07
-0.000169534
-6.00326e-07
-0.000170185
-6.50906e-07
-0.000171126
-6.87881e-07
-0.000172376
-7.43498e-07
-0.000173966
-8.60584e-07
-0.000175921
-1.09104e-06
-0.000178258
-1.49417e-06
-0.000180968
-2.13573e-06
-0.000184002
-3.08988e-06
-0.00018726
-4.44624e-06
-0.000190599
-6.32213e-06
-0.000193857
-8.87522e-06
-0.000196919
-1.23077e-05
-0.000199816
-1.68515e-05
-0.000202829
-0.000206583
-2.2695e-05
3.45299e-07
-0.000169356
3.46838e-07
-0.000171332
1.90178e-07
-0.000170394
-6.19567e-08
-0.000169527
-3.61988e-07
-0.000168977
-6.78634e-07
-0.000168757
-9.94253e-07
-0.000168847
-1.3036e-06
-0.000169224
-1.61304e-06
-0.000169875
-1.94023e-06
-0.000170798
-2.31377e-06
-0.000172003
-2.77297e-06
-0.000173506
-3.36727e-06
-0.000175326
-4.15467e-06
-0.000177471
-5.19979e-06
-0.000179923
-6.57235e-06
-0.000182629
-8.34808e-06
-0.000185484
-1.06151e-05
-0.000188332
-1.34874e-05
-0.000190985
-1.71216e-05
-0.000193285
-2.17309e-05
-0.000195206
-2.75827e-05
-0.000196977
-0.000199227
-3.49391e-05
2.90142e-07
-0.000169646
2.12003e-07
-0.000171254
-1.83681e-08
-0.000170163
-3.42868e-07
-0.000169202
-7.21869e-07
-0.000168598
-1.13248e-06
-0.000168347
-1.56561e-06
-0.000168414
-2.02421e-06
-0.000168766
-2.5223e-06
-0.000169377
-3.08454e-06
-0.000170236
-3.74581e-06
-0.000171342
-4.55102e-06
-0.000172701
-5.55463e-06
-0.000174323
-6.81912e-06
-0.000176206
-8.41309e-06
-0.000178329
-1.04094e-05
-0.000180633
-1.28851e-05
-0.000183009
-1.59264e-05
-0.000185291
-1.96422e-05
-0.000187269
-2.41847e-05
-0.000188742
-2.97723e-05
-0.000189619
-3.67021e-05
-0.000190047
-0.000190617
-4.53119e-05
2.35376e-07
-0.000169882
5.9075e-08
-0.000171077
-2.4785e-07
-0.000169856
-6.38037e-07
-0.000168812
-1.08091e-06
-0.000168155
-1.56379e-06
-0.000167864
-2.08724e-06
-0.00016789
-2.66269e-06
-0.00016819
-3.31148e-06
-0.000168728
-4.06436e-06
-0.000169483
-4.96121e-06
-0.000170445
-6.05109e-06
-0.000171611
-7.39175e-06
-0.000172982
-9.04843e-06
-0.00017455
-1.10922e-05
-0.000176285
-1.35979e-05
-0.000178127
-1.66431e-05
-0.000179964
-2.03118e-05
-0.000181622
-2.47066e-05
-0.000182874
-2.99712e-05
-0.000183478
-3.63208e-05
-0.000183269
-4.40693e-05
-0.000182298
-0.00018107
-5.36166e-05
1.92081e-07
-0.000170074
-1.03758e-07
-0.000170781
-4.91611e-07
-0.000169468
-9.38582e-07
-0.000168365
-1.42726e-06
-0.000167666
-1.95789e-06
-0.000167333
-2.54197e-06
-0.000167306
-3.19968e-06
-0.000167532
-3.9591e-06
-0.000167969
-4.85604e-06
-0.000168586
-5.93412e-06
-0.000169367
-7.24495e-06
-0.000170301
-8.84792e-06
-0.000171379
-1.08093e-05
-0.000172588
-1.3201e-05
-0.000173894
-1.6098e-05
-0.00017523
-1.95773e-05
-0.000176484
-2.37201e-05
-0.000177479
-2.86211e-05
-0.000177973
-3.44114e-05
-0.000177687
-4.12933e-05
-0.000176387
-4.95791e-05
-0.000174013
-0.000170946
-5.97026e-05
1.78106e-07
-0.000170252
-2.73305e-07
-0.00017033
-7.45e-07
-0.000168997
-1.23506e-06
-0.000167875
-1.74715e-06
-0.000167154
-2.29765e-06
-0.000166782
-2.91019e-06
-0.000166694
-3.61358e-06
-0.000166829
-4.44189e-06
-0.000167141
-5.43482e-06
-0.000167594
-6.63831e-06
-0.000168163
-8.10503e-06
-0.000168834
-9.89448e-06
-0.00016959
-1.20724e-05
-0.00017041
-1.47096e-05
-0.000171257
-1.78799e-05
-0.00017206
-2.16578e-05
-0.000172706
-2.61199e-05
-0.000173017
-3.13517e-05
-0.000172741
-3.74676e-05
-0.000171571
-4.46476e-05
-0.000169207
-5.31825e-05
-0.000165478
-0.000160623
-6.35059e-05
1.87004e-07
-0.000170439
-4.59733e-07
-0.000169683
-1.00966e-06
-0.000168446
-1.52024e-06
-0.000167364
-2.02722e-06
-0.000166647
-2.56601e-06
-0.000166244
-3.1726e-06
-0.000166087
-3.88369e-06
-0.000166118
-4.73807e-06
-0.000166286
-5.77794e-06
-0.000166554
-7.05009e-06
-0.000166891
-8.60682e-06
-0.000167277
-1.05064e-05
-0.000167691
-1.28128e-05
-0.000168104
-1.55945e-05
-0.000168475
-1.89222e-05
-0.000168732
-2.28667e-05
-0.000168762
-2.74979e-05
-0.000168386
-3.28896e-05
-0.000167349
-3.91366e-05
-0.000165324
-4.63883e-05
-0.000161956
-5.48981e-05
-0.000156968
-0.000150453
-6.50673e-05
1.68501e-07
-0.000170607
-6.91553e-07
-0.000168823
-1.29485e-06
-0.000167843
-1.79004e-06
-0.000166869
-2.25596e-06
-0.000166181
-2.74791e-06
-0.000165752
-3.31272e-06
-0.000165522
-3.99305e-06
-0.000165438
-4.83051e-06
-0.000165449
-5.86796e-06
-0.000165516
-7.15145e-06
-0.000165608
-8.73161e-06
-0.000165697
-1.06645e-05
-0.000165758
-1.30114e-05
-0.000165757
-1.58377e-05
-0.000165648
-1.92105e-05
-0.00016536
-2.31953e-05
-0.000164777
-2.78539e-05
-0.000163727
-3.32467e-05
-0.000161957
-3.94454e-05
-0.000159126
-4.65638e-05
-0.000154837
-5.48069e-05
-0.000148724
-0.000140737
-6.45235e-05
3.23327e-08
-0.00017064
-1.01144e-06
-0.000167779
-1.61382e-06
-0.000167241
-2.0408e-06
-0.000166442
-2.42229e-06
-0.0001658
-2.83029e-06
-0.000165344
-3.31811e-06
-0.000165034
-3.93072e-06
-0.000164825
-4.70961e-06
-0.00016467
-5.69607e-06
-0.00016453
-6.93373e-06
-0.00016437
-8.47031e-06
-0.000164161
-1.03589e-05
-0.000163869
-1.26577e-05
-0.000163458
-1.54289e-05
-0.000162877
-1.87361e-05
-0.000162053
-2.26396e-05
-0.000160873
-2.71935e-05
-0.000159173
-3.2444e-05
-0.000156706
-3.84382e-05
-0.000153131
-4.52506e-05
-0.000148025
-5.30318e-05
-0.000140943
-0.0001317
-6.20688e-05
-3.82936e-07
-0.000170257
-1.47664e-06
-0.000166686
-1.97354e-06
-0.000166744
-2.26074e-06
-0.000166155
-2.51099e-06
-0.000165549
-2.80064e-06
-0.000165054
-3.18095e-06
-0.000164654
-3.69363e-06
-0.000164312
-4.3763e-06
-0.000163987
-5.26608e-06
-0.00016364
-6.40238e-06
-0.000163234
-7.82889e-06
-0.000162734
-9.59486e-06
-0.000162103
-1.17553e-05
-0.000161298