/*--------------------------------*- C++ -*----------------------------------*\
| =========                 |                                                 |
| \\      /  F ield         | OpenFOAM: The Open Source CFD Toolbox           |
|  \\    /   O peration     | Version:  v2012                                 |
|   \\  /    A nd           | Website:  www.openfoam.com                      |
|    \\/     M anipulation  |                                                 |
\*---------------------------------------------------------------------------*/
FoamFile
{
    version     2.0;
    format      ascii;
    class       volVectorField;
    location    "0.35";
    object      U;
}
// * * * * * * * * * * * * * * * * * * * * * * * * * * * * * * * * * * * * * //

dimensions      [0 1 -1 0 0 0 0];


internalField   nonuniform List<vector> 
2268
(
(-0.0518446 0.0165521 0)
(-0.0684075 -0.00105255 0)
(-0.0356245 -0.0164174 0)
(0.0145188 -0.0197286 0)
(0.0724159 -0.0204137 0)
(0.129988 -0.0194377 0)
(0.184923 -0.0180295 0)
(0.236536 -0.0166957 0)
(0.284939 -0.0155359 0)
(0.330437 -0.014507 0)
(0.373127 -0.0135053 0)
(0.412725 -0.0123867 0)
(0.448439 -0.0109705 0)
(0.478865 -0.0089732 0)
(0.501232 -0.00599742 0)
(0.51306 -8.96461e-05 0)
(0.50189 0.00892447 0)
(0.458083 0.0224137 0)
(0.37271 0.0390977 0)
(0.23807 0.0533411 0)
(0.0723171 0.0581781 0)
(-0.155457 0.0118462 0)
(-0.0857997 -0.0717941 0)
(-0.0397838 0.0372714 0)
(-0.0258673 -0.00432733 0)
(0.0085558 -0.0304842 0)
(0.0575944 -0.0399592 0)
(0.112549 -0.0422751 0)
(0.167802 -0.04121 0)
(0.221149 -0.0390341 0)
(0.271878 -0.0367306 0)
(0.319919 -0.0345758 0)
(0.365346 -0.0325253 0)
(0.408079 -0.0303768 0)
(0.447724 -0.0278258 0)
(0.483452 -0.0244673 0)
(0.513884 -0.0197051 0)
(0.53695 -0.0126603 0)
(0.549291 -0.00125429 0)
(0.550369 0.0162572 0)
(0.533199 0.0417579 0)
(0.486915 0.074728 0)
(0.393393 0.108627 0)
(0.250095 0.129081 0)
(0.0204712 0.0892788 0)
(0.017936 -0.0825261 0)
(-0.0153774 0.0459149 0)
(0.00335203 -0.0166097 0)
(0.0397086 -0.0496902 0)
(0.0875612 -0.0629798 0)
(0.139952 -0.0662775 0)
(0.192637 -0.0649217 0)
(0.243839 -0.0618956 0)
(0.292926 -0.0585648 0)
(0.339741 -0.055348 0)
(0.384221 -0.0521906 0)
(0.426167 -0.0487951 0)
(0.46511 -0.0447056 0)
(0.500207 -0.0393117 0)
(0.530142 -0.0317732 0)
(0.553058 -0.0208942 0)
(0.566225 -0.00488166 0)
(0.567589 0.019057 0)
(0.553768 0.0536461 0)
(0.519962 0.100174 0)
(0.456113 0.153118 0)
(0.355132 0.193136 0)
(0.17349 0.156093 0)
(0.10036 -0.0416944 0)
(0.00225718 0.043076 0)
(0.0250853 -0.0297727 0)
(0.0642464 -0.069972 0)
(0.111865 -0.086402 0)
(0.162385 -0.090438 0)
(0.212839 -0.088725 0)
(0.261996 -0.0848892 0)
(0.309397 -0.0805975 0)
(0.354874 -0.0763668 0)
(0.398278 -0.072119 0)
(0.439327 -0.0674639 0)
(0.477499 -0.0618045 0)
(0.511952 -0.054347 0)
(0.541448 -0.0440326 0)
(0.564328 -0.0294196 0)
(0.578387 -0.00852662 0)
(0.58155 0.0215278 0)
(0.571442 0.0638179 0)
(0.545421 0.120468 0)
(0.498052 0.187626 0)
(0.422517 0.246658 0)
(0.279423 0.226032 0)
(0.162368 0.0401484 0)
(0.0109772 0.033246 0)
(0.0404599 -0.045976 0)
(0.0835878 -0.0912085 0)
(0.131864 -0.109694 0)
(0.181164 -0.114046 0)
(0.229787 -0.111908 0)
(0.277115 -0.107359 0)
(0.32293 -0.102244 0)
(0.367099 -0.0971187 0)
(0.40943 -0.091865 0)
(0.449584 -0.086005 0)
(0.487008 -0.0788175 0)
(0.520878 -0.0693527 0)
(0.55005 -0.0563768 0)
(0.573073 -0.0382723 0)
(0.588179 -0.0129297 0)
(0.593669 0.0225153 0)
(0.587891 0.0712627 0)
(0.569176 0.135786 0)
(0.534131 0.213716 0)
(0.474843 0.289902 0)
(0.360432 0.297182 0)
(0.215614 0.158792 0)
(0.0146216 0.0197185 0)
(0.051158 -0.0653122 0)
(0.0987048 -0.113586 0)
(0.148139 -0.132879 0)
(0.196651 -0.13698 0)
(0.243761 -0.134264 0)
(0.289477 -0.129056 0)
(0.333837 -0.123238 0)
(0.376771 -0.117338 0)
(0.418066 -0.111177 0)
(0.457348 -0.104192 0)
(0.494056 -0.095556 0)
(0.527398 -0.0841912 0)
(0.556335 -0.0687336 0)
(0.579624 -0.0474595 0)
(0.595898 -0.0182119 0)
(0.603938 0.0218067 0)
(0.602775 0.0757907 0)
(0.591457 0.146476 0)
(0.567882 0.233062 0)
(0.522655 0.324897 0)
(0.43438 0.367233 0)
(0.26794 0.304861 0)
(0.0166322 0.0038196 0)
(0.0591 -0.0874401 0)
(0.110676 -0.137193 0)
(0.161298 -0.156116 0)
(0.20918 -0.159377 0)
(0.254956 -0.155894 0)
(0.299214 -0.150037 0)
(0.342226 -0.143601 0)
(0.383985 -0.137021 0)
(0.424268 -0.130036 0)
(0.462686 -0.122004 0)
(0.498682 -0.112005 0)
(0.531513 -0.0988602 0)
(0.56025 -0.0811169 0)
(0.583859 -0.0570077 0)
(0.601342 -0.0244078 0)
(0.611994 0.019354 0)
(0.615549 0.077386 0)
(0.611864 0.152636 0)
(0.600224 0.245895 0)
(0.570962 0.351325 0)
(0.515483 0.43474 0)
(0.329205 0.477954 0)
(0.0186422 -0.0138233 0)
(0.0656743 -0.111838 0)
(0.120504 -0.161863 0)
(0.172014 -0.179403 0)
(0.219191 -0.181284 0)
(0.263669 -0.176838 0)
(0.306544 -0.170313 0)
(0.348271 -0.163311 0)
(0.388887 -0.156118 0)
(0.42816 -0.148375 0)
(0.465694 -0.139363 0)
(0.500952 -0.128087 0)
(0.53325 -0.11329 0)
(0.561771 -0.0934652 0)
(0.585674 -0.0668608 0)
(0.604311 -0.0314697 0)
(0.617491 0.0151663 0)
(0.625673 0.0759662 0)
(0.62973 0.153898 0)
(0.63076 0.250901 0)
(0.621989 0.365179 0)
(0.606973 0.48661 0)
(0.411977 0.713218 0)
(0.0132934 0.00179926 0)
(-0.0801663 0.0310583 0)
(-0.184863 0.0212732 0)
(-0.221344 0.0041164 0)
(-0.208904 -0.00809509 0)
(-0.16762 -0.0153873 0)
(-0.108391 -0.0191244 0)
(-0.0393189 -0.0209272 0)
(0.0323497 -0.0203239 0)
(0.0995731 -0.0176048 0)
(0.155961 -0.0134323 0)
(0.196426 -0.0082517 0)
(0.217842 -0.0026277 0)
(0.218218 0.00272522 0)
(0.198927 0.00731123 0)
(0.163908 0.0107313 0)
(0.117394 0.0128745 0)
(0.0649381 0.0128652 0)
(0.0184907 0.00932182 0)
(-0.0327596 0.0248632 0)
(-0.134548 0.0701324 0)
(-0.216986 0.0426351 0)
(-0.232055 0.00693796 0)
(-0.213938 -0.0182099 0)
(-0.172005 -0.0341507 0)
(-0.113536 -0.0431817 0)
(-0.0457374 -0.0474073 0)
(0.0241455 -0.0468315 0)
(0.090078 -0.0414067 0)
(0.146194 -0.0323588 0)
(0.187616 -0.0205901 0)
(0.211272 -0.00739361 0)
(0.216218 0.00562171 0)
(0.202366 0.0172767 0)
(0.171336 0.0265233 0)
(0.126719 0.032654 0)
(0.0745963 0.0338087 0)
(0.0241184 0.0271688 0)
(-0.0640435 0.063715 0)
(-0.160504 0.108918 0)
(-0.225275 0.058077 0)
(-0.233374 0.00576547 0)
(-0.212727 -0.0306597 0)
(-0.17018 -0.0543301 0)
(-0.112535 -0.0682664 0)
(-0.0461074 -0.0746205 0)
(0.0221161 -0.0738893 0)
(0.0864327 -0.0659111 0)
(0.141526 -0.0522445 0)
(0.182708 -0.0341862 0)
(0.207155 -0.0137178 0)
(0.213165 0.00695116 0)
(0.200402 0.0259676 0)
(0.170954 0.0414825 0)
(0.128309 0.0519759 0)
(0.0785261 0.0550521 0)
(0.0277203 0.0484494 0)
(-0.0824747 0.11024 0)
(-0.176325 0.148231 0)
(-0.232587 0.0700949 0)
(-0.233155 0.00291979 0)
(-0.209654 -0.0443593 0)
(-0.166193 -0.0754651 0)
(-0.108718 -0.0943143 0)
(-0.0428402 -0.102598 0)
(0.0246641 -0.101587 0)
(0.0882358 -0.0908345 0)
(0.142729 -0.0723988 0)
(0.18364 -0.0480916 0)
(0.208305 -0.0203076 0)
(0.214901 0.00812221 0)
(0.202793 0.0346217 0)
(0.174036 0.0564618 0)
(0.131993 0.0713871 0)
(0.0826171 0.0768435 0)
(0.0305205 0.0716766 0)
(-0.0905766 0.160107 0)
(-0.183765 0.188957 0)
(-0.236529 0.077935 0)
(-0.228412 -0.00190891 0)
(-0.20282 -0.0590114 0)
(-0.15905 -0.0971206 0)
(-0.101778 -0.12084 0)
(-0.0360322 -0.130976 0)
(0.0314558 -0.129633 0)
(0.0951727 -0.116061 0)
(0.149673 -0.0927562 0)
(0.190505 -0.0621646 0)
(0.215099 -0.0270693 0)
(0.221692 0.00918042 0)
(0.209475 0.0432576 0)
(0.180363 0.0715464 0)
(0.137568 0.0910596 0)
(0.0869769 0.0992692 0)
(0.0326964 0.0961624 0)
(-0.0868024 0.19191 0)
(-0.17931 0.232524 0)
(-0.227293 0.0790373 0)
(-0.210355 -0.00958015 0)
(-0.185932 -0.0739378 0)
(-0.144824 -0.117665 0)
(-0.0894909 -0.146722 0)
(-0.0245095 -0.159059 0)
(0.0430061 -0.15767 0)
(0.107499 -0.14123 0)
(0.162569 -0.112909 0)
(0.203569 -0.0759925 0)
(0.227943 -0.0336262 0)
(0.233995 0.0104488 0)
(0.220817 0.0521833 0)
(0.190184 0.0870636 0)
(0.145237 0.111366 0)
(0.0919615 0.122647 0)
(0.0346037 0.121933 0)
(-0.0576432 0.381417 0)
(-0.138202 0.290192 0)
(-0.177934 0.0673918 0)
(-0.158967 -0.0220974 0)
(-0.144746 -0.0888678 0)
(-0.114431 -0.136478 0)
(-0.0670372 -0.171467 0)
(-0.00557235 -0.186 0)
(0.0608218 -0.185609 0)
(0.12621 -0.166735 0)
(0.182205 -0.133212 0)
(0.223549 -0.0895782 0)
(0.247591 -0.0396914 0)
(0.252605 0.0123359 0)
(0.237584 0.0618923 0)
(0.204198 0.103571 0)
(0.155624 0.132886 0)
(0.0981539 0.14742 0)
(0.0365999 0.149142 0)
(0.217478 0.179365 0)
(-0.046458 0.404801 0)
(-0.0145619 0.0429537 0)
(-0.0350804 -0.0272752 0)
(-0.0534215 -0.10032 0)
(-0.0495725 -0.157255 0)
(-0.0238221 -0.198295 0)
(0.0266203 -0.214486 0)
(0.0873015 -0.21502 0)
(0.152478 -0.19372 0)
(0.209594 -0.154926 0)
(0.251732 -0.104264 0)
(0.27554 -0.0461884 0)
(0.278994 0.0146185 0)
(0.261135 0.0727028 0)
(0.223578 0.121842 0)
(0.169743 0.156656 0)
(0.106473 0.174597 0)
(0.0392127 0.178003 0)
(0.0225396 -0.0448688 0)
(0.075144 -0.153817 0)
(0.13379 -0.201989 0)
(0.185792 -0.21564 0)
(0.23145 -0.214574 0)
(0.273831 -0.208365 0)
(0.314645 -0.200788 0)
(0.354502 -0.192977 0)
(0.39344 -0.184917 0)
(0.431202 -0.176081 0)
(0.467388 -0.165642 0)
(0.501508 -0.15251 0)
(0.532977 -0.135343 0)
(0.561147 -0.112597 0)
(0.585451 -0.0826258 0)
(0.605732 -0.0437404 0)
(0.622561 0.00603442 0)
(0.637469 0.0690093 0)
(0.653105 0.147598 0)
(0.673993 0.243804 0)
(0.70544 0.358276 0)
(0.771897 0.495936 0)
(0.865875 0.780826 0)
(0.0280537 -0.0938892 0)
(0.0900091 -0.217333 0)
(0.152392 -0.258112 0)
(0.202018 -0.263316 0)
(0.243576 -0.257289 0)
(0.282284 -0.248804 0)
(0.320171 -0.240219 0)
(0.357671 -0.231718 0)
(0.394611 -0.222795 0)
(0.430593 -0.212724 0)
(0.465184 -0.200605 0)
(0.497956 -0.185292 0)
(0.52846 -0.165393 0)
(0.556217 -0.139398 0)
(0.580883 -0.105973 0)
(0.602746 -0.0641927 0)
(0.623098 -0.0130328 0)
(0.644353 0.0486428 0)
(0.670222 0.121599 0)
(0.706539 0.205319 0)
(0.761516 0.29713 0)
(0.843063 0.394204 0)
(0.976355 0.508035 0)
(0.0335879 -0.158607 0)
(0.115949 -0.290176 0)
(0.177022 -0.313294 0)
(0.217358 -0.306929 0)
(0.251577 -0.296763 0)
(0.285651 -0.287457 0)
(0.320492 -0.27888 0)
(0.355729 -0.270225 0)
(0.390735 -0.26065 0)
(0.424889 -0.249395 0)
(0.457694 -0.235639 0)
(0.488778 -0.218289 0)
(0.517832 -0.195984 0)
(0.544544 -0.167281 0)
(0.568716 -0.131212 0)
(0.59094 -0.0878775 0)
(0.612925 -0.0372238 0)
(0.637297 0.0209432 0)
(0.667256 0.085698 0)
(0.707038 0.15487 0)
(0.762556 0.222915 0)
(0.835811 0.283715 0)
(0.938932 0.331275 0)
(0.0566942 -0.241022 0)
(0.167377 -0.374631 0)
(0.205784 -0.363381 0)
(0.225949 -0.343379 0)
(0.251666 -0.331187 0)
(0.282212 -0.322325 0)
(0.315026 -0.31403 0)
(0.348586 -0.305071 0)
(0.381872 -0.294591 0)
(0.414123 -0.281971 0)
(0.444777 -0.266551 0)
(0.473465 -0.247357 0)
(0.500001 -0.22313 0)
(0.524343 -0.192528 0)
(0.546743 -0.154846 0)
(0.568306 -0.111197 0)
(0.590957 -0.0622351 0)
(0.616988 -0.00838788 0)
(0.648761 0.0484882 0)
(0.689553 0.104761 0)
(0.743266 0.154702 0)
(0.810251 0.198435 0)
(0.893603 0.233226 0)
(0.139812 -0.353017 0)
(0.243623 -0.457321 0)
(0.222858 -0.379231 0)
(0.220311 -0.353573 0)
(0.243035 -0.346961 0)
(0.273582 -0.341268 0)
(0.306091 -0.334018 0)
(0.338663 -0.324964 0)
(0.370344 -0.313587 0)
(0.400402 -0.299532 0)
(0.428151 -0.282367 0)
(0.453087 -0.261288 0)
(0.475094 -0.235231 0)
(0.494515 -0.202953 0)
(0.512647 -0.16383 0)
(0.532041 -0.120978 0)
(0.555384 -0.0755149 0)
(0.585908 -0.0275749 0)
(0.625212 0.0217335 0)
(0.673991 0.0676518 0)
(0.728012 0.105809 0)
(0.786889 0.137833 0)
(0.855887 0.160732 0)
(0.335732 -0.562315 0)
(0.208718 -0.428516 0)
(0.173165 -0.340538 0)
(0.206698 -0.350954 0)
(0.237338 -0.355957 0)
(0.26857 -0.354148 0)
(0.300388 -0.348573 0)
(0.331487 -0.340437 0)
(0.361195 -0.329521 0)
(0.388934 -0.315474 0)
(0.413805 -0.297743 0)
(0.435051 -0.275539 0)
(0.452482 -0.248208 0)
(0.466757 -0.215313 0)
(0.481344 -0.176202 0)
(0.497626 -0.134111 0)
(0.516636 -0.0894459 0)
(0.542773 -0.0428707 0)
(0.583881 0.00478346 0)
(0.646317 0.0484126 0)
(0.709335 0.0782577 0)
(0.772361 0.0987921 0)
(0.83902 0.110609 0)
(-0.0400099 -0.893251 0)
(0.0027448 -0.42015 0)
(0.097744 -0.333945 0)
(0.177881 -0.411703 0)
(0.23925 -0.453017 0)
(0.295886 -0.459945 0)
(0.350259 -0.4542 0)
(0.401122 -0.442627 0)
(0.448596 -0.426157 0)
(0.493309 -0.404487 0)
(0.535723 -0.377334 0)
(0.576127 -0.344928 0)
(0.614699 -0.308442 0)
(0.65135 -0.270127 0)
(0.68619 -0.231343 0)
(0.718565 -0.195482 0)
(0.746568 -0.165294 0)
(0.769081 -0.143279 0)
(0.796267 -0.125502 0)
(0.761347 -0.0713642 0)
(0.725786 0.00473925 0)
(0.766393 0.0499158 0)
(0.831352 0.07503 0)
(-0.109206 -0.680062 0)
(-0.0217921 -0.54216 0)
(0.0888322 -0.490129 0)
(0.184057 -0.488968 0)
(0.256937 -0.49001 0)
(0.318143 -0.482831 0)
(0.375336 -0.470721 0)
(0.429995 -0.455753 0)
(0.482367 -0.43808 0)
(0.532953 -0.417146 0)
(0.582401 -0.392334 0)
(0.631312 -0.363229 0)
(0.680144 -0.329833 0)
(0.729046 -0.29261 0)
(0.777931 -0.251996 0)
(0.82629 -0.209026 0)
(0.872961 -0.164323 0)
(0.916591 -0.11736 0)
(0.958847 -0.0666898 0)
(0.995374 -0.0289149 0)
(1.03851 -0.0437942 0)
(1.08489 -0.0978776 0)
(1.11856 -0.129448 0)
(-0.0144141 -0.62252 0)
(0.023045 -0.634196 0)
(0.110835 -0.59055 0)
(0.190126 -0.569097 0)
(0.258015 -0.556584 0)
(0.317831 -0.543391 0)
(0.374065 -0.528144 0)
(0.428473 -0.511022 0)
(0.481572 -0.49177 0)
(0.533814 -0.46983 0)
(0.585763 -0.444629 0)
(0.638024 -0.415745 0)
(0.691177 -0.383011 0)
(0.745673 -0.346558 0)
(0.801824 -0.306703 0)
(0.859762 -0.264078 0)
(0.919449 -0.219353 0)
(0.980938 -0.17305 0)
(1.04601 -0.125463 0)
(1.11776 -0.0834063 0)
(1.19457 -0.0613608 0)
(1.26517 -0.0551669 0)
(1.3213 -0.0376859 0)
(0.0160331 -0.656704 0)
(0.0549539 -0.699081 0)
(0.119626 -0.662727 0)
(0.183074 -0.636502 0)
(0.242281 -0.617958 0)
(0.297678 -0.601148 0)
(0.350984 -0.583931 0)
(0.403231 -0.565632 0)
(0.454886 -0.545688 0)
(0.506338 -0.523507 0)
(0.558057 -0.498577 0)
(0.610601 -0.470541 0)
(0.664589 -0.439259 0)
(0.720656 -0.40483 0)
(0.779438 -0.367574 0)
(0.841549 -0.328088 0)
(0.907608 -0.287186 0)
(0.978208 -0.245901 0)
(1.05473 -0.205784 0)
(1.13829 -0.171341 0)
(1.22512 -0.149624 0)
(1.30744 -0.137553 0)
(1.38015 -0.119934 0)
(0.0223101 -0.688721 0)
(0.0624319 -0.7529 0)
(0.112915 -0.719678 0)
(0.164623 -0.692687 0)
(0.215633 -0.67195 0)
(0.265443 -0.653485 0)
(0.314461 -0.63533 0)
(0.363123 -0.616554 0)
(0.411725 -0.596495 0)
(0.460571 -0.574589 0)
(0.510065 -0.55041 0)
(0.560723 -0.523705 0)
(0.613174 -0.494421 0)
(0.668134 -0.462722 0)
(0.726385 -0.428977 0)
(0.78875 -0.393784 0)
(0.856044 -0.357964 0)
(0.929021 -0.322617 0)
(1.00844 -0.289393 0)
(1.09432 -0.261063 0)
(1.1838 -0.240345 0)
(1.2729 -0.224463 0)
(1.35927 -0.203947 0)
(0.02504 -0.729815 0)
(0.0597671 -0.796447 0)
(0.0982501 -0.765318 0)
(0.140492 -0.739679 0)
(0.183994 -0.719008 0)
(0.227782 -0.700327 0)
(0.271691 -0.682074 0)
(0.315805 -0.663378 0)
(0.36027 -0.643625 0)
(0.405319 -0.622343 0)
(0.451306 -0.59922 0)
(0.498718 -0.57413 0)
(0.548168 -0.547144 0)
(0.60038 -0.518522 0)
(0.65616 -0.488703 0)
(0.716351 -0.45829 0)
(0.781771 -0.428054 0)
(0.853132 -0.398962 0)
(0.930897 -0.372255 0)
(1.01485 -0.349418 0)
(1.10332 -0.331291 0)
(1.19454 -0.315762 0)
(1.28742 -0.296903 0)
(0.0231528 -0.769605 0)
(0.0516932 -0.829321 0)
(0.0808098 -0.801635 0)
(0.115218 -0.778776 0)
(0.151809 -0.759413 0)
(0.189498 -0.74141 0)
(0.227916 -0.72366 0)
(0.266976 -0.705482 0)
(0.30674 -0.686383 0)
(0.347394 -0.666016 0)
(0.38926 -0.644203 0)
(0.432798 -0.620956 0)
(0.478596 -0.596473 0)
(0.527343 -0.571119 0)
(0.579804 -0.545389 0)
(0.636771 -0.519887 0)
(0.698996 -0.495296 0)
(0.767111 -0.472384 0)
(0.841491 -0.45198 0)
(0.922048 -0.434833 0)
(1.00793 -0.421051 0)
(1.09851 -0.409018 0)
(1.19339 -0.394644 0)
(0.0187785 -0.803998 0)
(0.0416212 -0.85347 0)
(0.0637455 -0.830478 0)
(0.0915646 -0.810982 0)
(0.12184 -0.793495 0)
(0.15363 -0.776684 0)
(0.186547 -0.759861 0)
(0.220459 -0.742557 0)
(0.255396 -0.724428 0)
(0.291529 -0.705265 0)
(0.329167 -0.685029 0)
(0.368751 -0.663865 0)
(0.410835 -0.642092 0)
(0.456062 -0.620162 0)
(0.505131 -0.598618 0)
(0.558756 -0.578044 0)
(0.617615 -0.559041 0)
(0.682271 -0.542197 0)
(0.753086 -0.528053 0)
(0.830131 -0.516954 0)
(0.913051 -0.508702 0)
(1.00182 -0.501974 0)
(1.09652 -0.493705 0)
(0.0140217 -0.831481 0)
(0.0317702 -0.871227 0)
(0.0486997 -0.853322 0)
(0.0709113 -0.83714 0)
(0.0955192 -0.821711 0)
(0.121831 -0.80638 0)
(0.149531 -0.790795 0)
(0.178509 -0.774676 0)
(0.208812 -0.757826 0)
(0.24062 -0.740172 0)
(0.274244 -0.721807 0)
(0.310108 -0.702999 0)
(0.348735 -0.684169 0)
(0.390713 -0.665843 0)
(0.436669 -0.64859 0)
(0.48724 -0.63297 0)
(0.54302 -0.619503 0)
(0.604511 -0.608639 0)
(0.672063 -0.600725 0)
(0.745841 -0.595889 0)
(0.825758 -0.593816 0)
(0.912114 -0.593391 0)
(1.00533 -0.592244 0)
(0.00980898 -0.852041 0)
(0.0232414 -0.884413 0)
(0.0362845 -0.871253 0)
(0.0537296 -0.85803 0)
(0.0733761 -0.844642 0)
(0.0947819 -0.830947 0)
(0.11774 -0.816829 0)
(0.142202 -0.802165 0)
(0.168254 -0.786888 0)
(0.196103 -0.771051 0)
(0.226066 -0.754862 0)
(0.258556 -0.738696 0)
(0.29406 -0.723054 0)
(0.333106 -0.708514 0)
(0.376248 -0.695657 0)
(0.424033 -0.68501 0)
(0.476972 -0.677018 0)
(0.535492 -0.672021 0)
(0.599898 -0.670235 0)
(0.670375 -0.671682 0)
(0.746959 -0.676038 0)
(0.830132 -0.682394 0)
(0.92062 -0.688937 0)
(0.0065639 -0.866714 0)
(0.0164746 -0.894314 0)
(0.026532 -0.885128 0)
(0.0399758 -0.874413 0)
(0.0553878 -0.86296 0)
(0.0725339 -0.850967 0)
(0.0913212 -0.838478 0)
(0.111778 -0.825489 0)
(0.134039 -0.812043 0)
(0.158342 -0.7983 0)
(0.185012 -0.784565 0)
(0.214444 -0.771293 0)
(0.247082 -0.759046 0)
(0.283391 -0.74843 0)
(0.32384 -0.74002 0)
(0.368882 -0.734303 0)
(0.418932 -0.731646 0)
(0.474319 -0.732297 0)
(0.535273 -0.736386 0)
(0.60194 -0.743899 0)
(0.67439 -0.754585 0)
(0.753218 -0.767786 0)
(0.839418 -0.782202 0)
(0.00433447 -0.876856 0)
(0.0114817 -0.901805 0)
(0.0191799 -0.895671 0)
(0.0293367 -0.887028 0)
(0.0412204 -0.877363 0)
(0.0547588 -0.867076 0)
(0.0699641 -0.85631 0)
(0.086937 -0.845152 0)
(0.105862 -0.833734 0)
(0.127001 -0.8223 0)
(0.150681 -0.811227 0)
(0.177271 -0.801026 0)
(0.207163 -0.792295 0)
(0.240748 -0.785646 0)
(0.278404 -0.781631 0)
(0.320485 -0.780682 0)
(0.367296 -0.783088 0)
(0.419058 -0.789013 0)
(0.475894 -0.798533 0)
(0.537875 -0.81165 0)
(0.605047 -0.828253 0)
(0.67806 -0.847985 0)
(0.75812 -0.870052 0)
(0.00296996 -0.883798 0)
(0.00804397 -0.907471 0)
(0.0138503 -0.903517 0)
(0.0213754 -0.896562 0)
(0.0303806 -0.888519 0)
(0.0409204 -0.879887 0)
(0.0530945 -0.870873 0)
(0.0670655 -0.86163 0)
(0.0830567 -0.852357 0)
(0.101346 -0.843357 0)
(0.12225 -0.835057 0)
(0.146102 -0.827997 0)
(0.173231 -0.822786 0)
(0.203949 -0.820022 0)
(0.238538 -0.820215 0)
(0.277251 -0.823732 0)
(0.320279 -0.83078 0)
(0.367729 -0.841446 0)
(0.419607 -0.855771 0)
(0.475879 -0.87381 0)
(0.536516 -0.89563 0)
(0.602172 -0.921216 0)
(0.67416 -0.950269 0)
(0.00223993 -0.888695 0)
(0.00583747 -0.911725 0)
(0.0101444 -0.909229 0)
(0.0156124 -0.903629 0)
(0.022309 -0.897021 0)
(0.0303868 -0.889948 0)
(0.040014 -0.882653 0)
(0.0513991 -0.875334 0)
(0.0647908 -0.868234 0)
(0.0804698 -0.861693 0)
(0.0987303 -0.856164 0)
(0.119859 -0.852195 0)
(0.144116 -0.850381 0)
(0.171729 -0.851287 0)
(0.202888 -0.855368 0)
(0.237744 -0.862916 0)
(0.276387 -0.874052 0)
(0.318806 -0.88879 0)
(0.364887 -0.907145 0)
(0.414472 -0.929236 0)
(0.467416 -0.955328 0)
(0.524319 -0.985755 0)
(0.586491 -1.02069 0)
(0.0019135 -0.892409 0)
(0.00452784 -0.914896 0)
(0.00768146 -0.913304 0)
(0.0115695 -0.908758 0)
(0.016437 -0.903381 0)
(0.022506 -0.897728 0)
(0.0299938 -0.892061 0)
(0.0391381 -0.886601 0)
(0.0501978 -0.881614 0)
(0.063443 -0.877456 0)
(0.0791348 -0.874585 0)
(0.0975051 -0.873535 0)
(0.118742 -0.874872 0)
(0.142989 -0.879112 0)
(0.170348 -0.886645 0)
(0.200881 -0.897681 0)
(0.234582 -0.912253 0)
(0.271339 -0.930301 0)
(0.310915 -0.951808 0)
(0.353016 -0.976951 0)
(0.397344 -1.00618 0)
(0.444403 -1.04015 0)
(0.495402 -1.07952 0)
(0.00182143 -0.895495 0)
(0.00382258 -0.917276 0)
(0.00610971 -0.916173 0)
(0.00880085 -0.912388 0)
(0.0122277 -0.908023 0)
(0.0166572 -0.903618 0)
(0.0223384 -0.899437 0)
(0.029522 -0.895704 0)
(0.0384629 -0.89269 0)
(0.0494084 -0.890748 0)
(0.0625779 -0.89032 0)
(0.0781439 -0.891913 0)
(0.0962215 -0.896047 0)
(0.116874 -0.903184 0)
(0.140123 -0.913641 0)
(0.165953 -0.927545 0)
(0.19428 -0.94484 0)
(0.224899 -0.965383 0)
(0.257462 -0.989111 0)
(0.291535 -1.01623 0)
(0.326647 -1.04733 0)
(0.36317 -1.08339 0)
(0.40214 -1.12549 0)
(0.00183289 -0.898278 0)
(0.00346861 -0.919131 0)
(0.00512289 -0.918152 0)
(0.00691992 -0.914858 0)
(0.00920441 -0.911282 0)
(0.0122855 -0.907934 0)
(0.0164266 -0.905057 0)
(0.0218762 -0.902867 0)
(0.0288722 -0.901621 0)
(0.03763 -0.901652 0)
(0.0483212 -0.903371 0)
(0.0610568 -0.907246 0)
(0.0758807 -0.913744 0)
(0.092782 -0.923266 0)
(0.111712 -0.936056 0)
(0.13259 -0.952161 0)
(0.155266 -0.971433 0)
(0.179461 -0.99364 0)
(0.204731 -1.01865 0)
(0.23051 -1.04665 0)
(0.25615 -1.07833 0)
(0.281882 -1.11493 0)
(0.308513 -1.15795 0)
(0.00185373 -0.900938 0)
(0.00330332 -0.920635 0)
(0.00448291 -0.919466 0)
(0.00559222 -0.916423 0)
(0.00696044 -0.913418 0)
(0.00892015 -0.910921 0)
(0.0117341 -0.909141 0)
(0.0156347 -0.908272 0)
(0.0208357 -0.908542 0)
(0.0275126 -0.910249 0)
(0.0357862 -0.913764 0)
(0.0457067 -0.919503 0)
(0.0572503 -0.927879 0)
(0.0703395 -0.939227 0)
(0.0848627 -0.953725 0)
(0.100682 -0.971342 0)
(0.117598 -0.991845 0)
(0.135276 -1.0149 0)
(0.153198 -1.04027 0)
(0.170685 -1.06809 0)
(0.186928 -1.0991 0)
(0.20202 -1.13474 0)
(0.216506 -1.1769 0)
(0.00184603 -0.90354 0)
(0.00320135 -0.921873 0)
(0.00399628 -0.920281 0)
(0.00455932 -0.91727 0)
(0.00517328 -0.914629 0)
(0.00618431 -0.912768 0)
(0.00784315 -0.911866 0)
(0.0103518 -0.912073 0)
(0.0138949 -0.913577 0)
(0.0186046 -0.916632 0)
(0.0245495 -0.921557 0)
(0.0317216 -0.928714 0)
(0.0400353 -0.938454 0)
(0.0493526 -0.951053 0)
(0.0595053 -0.966626 0)
(0.0703059 -0.985072 0)
(0.0815165 -1.00607 0)
(0.0927651 -1.02919 0)
(0.103483 -1.05408 0)
(0.112913 -1.08075 0)
(0.120111 -1.10992 0)
(0.125035 -1.14321 0)
(0.12793 -1.18287 0)
(0.0017887 -0.906075 0)
(0.00307824 -0.922886 0)
(0.00352323 -0.920689 0)
(0.0036265 -0.917521 0)
(0.00360923 -0.915052 0)
(0.00380322 -0.913626 0)
(0.00443919 -0.913381 0)
(0.00569763 -0.91441 0)
(0.00771962 -0.916853 0)
(0.0105907 -0.920912 0)
(0.0143285 -0.926849 0)
(0.0188727 -0.934966 0)
(0.0240834 -0.945557 0)
(0.0297657 -0.958835 0)
(0.0357008 -0.974862 0)
(0.0416583 -0.993477 0)
(0.0473662 -1.01429 0)
(0.0524304 -1.03674 0)
(0.0562606 -1.06036 0)
(0.0580515 -1.08501 0)
(0.0567638 -1.11133 0)
(0.0522231 -1.14104 0)
(0.0442746 -1.17676 0)
(0.00167694 -0.908498 0)
(0.00288694 -0.92367 0)
(0.00297624 -0.920734 0)
(0.00266896 -0.917255 0)
(0.00209842 -0.914791 0)
(0.00158038 -0.913622 0)
(0.00131763 -0.913816 0)
(0.00145763 -0.915417 0)
(0.00209743 -0.918506 0)
(0.00327625 -0.923226 0)
(0.00496407 -0.929781 0)
(0.00705173 -0.938413 0)
(0.00935216 -0.949354 0)
(0.0116227 -0.962764 0)
(0.0135979 -0.978654 0)
(0.0150067 -0.996813 0)
(0.0155469 -1.01678 0)
(0.0148125 -1.03792 0)
(0.0122155 -1.05957 0)
(0.00693429 -1.08144 0)
(-0.00212876 -1.10404 0)
(-0.0152541 -1.12908 0)
(-0.0330256 -1.15957 0)
(0.0015144 -0.910745 0)
(0.00260716 -0.924188 0)
(0.00230568 -0.920428 0)
(0.00161075 -0.916523 0)
(0.000545295 -0.913931 0)
(-0.000595249 -0.912855 0)
(-0.00164229 -0.913295 0)
(-0.00248801 -0.915233 0)
(-0.00308006 -0.918688 0)
(-0.00342527 -0.923744 0)
(-0.00359879 -0.930543 0)
(-0.00375189 -0.939265 0)
(-0.00411069 -0.950086 0)
(-0.00495686 -0.963116 0)
(-0.00659625 -0.97832 0)
(-0.00933846 -0.995449 0)
(-0.0135137 -1.01399 0)
(-0.0195333 -1.03321 0)
(-0.0279664 -1.0523 0)
(-0.0396225 -1.07077 0)
(-0.0556161 -1.08891 0)
(-0.076338 -1.10836 0)
(-0.102843 -1.13242 0)
(0.00130685 -0.91275 0)
(0.00223689 -0.924387 0)
(0.0014917 -0.919765 0)
(0.000419852 -0.915361 0)
(-0.0010912 -0.91254 0)
(-0.00276937 -0.911425 0)
(-0.00448674 -0.911941 0)
(-0.0061793 -0.914004 0)
(-0.00784018 -0.917571 0)
(-0.00952089 -0.922662 0)
(-0.0113377 -0.929361 0)
(-0.0134775 -0.937788 0)
(-0.0161969 -0.948065 0)
(-0.0198068 -0.960254 0)
(-0.024645 -0.974282 0)
(-0.0310559 -0.989867 0)
(-0.0393974 -1.00646 0)
(-0.0500842 -1.02325 0)
(-0.0636583 -1.03928 0)
(-0.080896 -1.05383 0)
(-0.102898 -1.06693 0)
(-0.130174 -1.07998 0)
(-0.164226 -1.09645 0)
(0.00107509 -0.914475 0)
(0.00179129 -0.924198 0)
(0.000533594 -0.918723 0)
(-0.000899779 -0.913794 0)
(-0.00280799 -0.910688 0)
(-0.00493538 -0.909434 0)
(-0.00720275 -0.909885 0)
(-0.0095937 -0.911889 0)
(-0.0121471 -0.91534 0)
(-0.0149567 -0.9202 0)
(-0.0181756 -0.926493 0)
(-0.0220196 -0.934285 0)
(-0.0267674 -0.943646 0)
(-0.0327489 -0.954592 0)
(-0.0403243 -0.967018 0)
(-0.0498662 -0.980617 0)
(-0.0617579 -0.994811 0)
(-0.0764183 -1.00873 0)
(-0.0943599 -1.02129 0)
(-0.116313 -1.03152 0)
(-0.143336 -1.03912 0)
(-0.176048 -1.04514 0)
(-0.216331 -1.05294 0)
(0.000882402 -0.915893 0)
(0.00132639 -0.923537 0)
(-0.000548412 -0.917278 0)
(-0.00232376 -0.911853 0)
(-0.00457038 -0.908447 0)
(-0.0070474 -0.906993 0)
(-0.00973338 -0.907267 0)
(-0.0126628 -0.909055 0)
(-0.0159199 -0.912195 0)
(-0.0196373 -0.916592 0)
(-0.0239997 -0.922217 0)
(-0.0292454 -0.929084 0)
(-0.0356669 -0.937215 0)
(-0.0436032 -0.946585 0)
(-0.0534264 -0.957057 0)
(-0.0655282 -0.968304 0)
(-0.0803117 -0.979728 0)
(-0.0981992 -0.990413 0)
(-0.119674 -0.999171 0)
(-0.145408 -1.0048 0)
(-0.176391 -1.00661 0)
(-0.21331 -1.00516 0)
(-0.258309 -1.00347 0)
(0.000829292 -0.916993 0)
(0.000909046 -0.922295 0)
(-0.00173295 -0.915408 0)
(-0.00380938 -0.909579 0)
(-0.0063215 -0.905907 0)
(-0.00903294 -0.904223 0)
(-0.0119925 -0.904239 0)
(-0.015289 -0.905683 0)
(-0.0190499 -0.908344 0)
(-0.0234429 -0.912081 0)
(-0.028678 -0.916817 0)
(-0.0350095 -0.922521 0)
(-0.0427359 -0.929171 0)
(-0.0521965 -0.936702 0)
(-0.0637649 -0.944948 0)
(-0.0778399 -0.953563 0)
(-0.0948354 -0.961937 0)
(-0.115173 -0.969124 0)
(-0.139306 -0.973851 0)
(-0.167836 -0.974703 0)
(-0.201658 -0.970598 0)
(-0.241466 -0.961514 0)
(-0.289513 -0.949888 0)
(0.000966902 -0.917901 0)
(0.000570862 -0.92031 0)
(-0.00302102 -0.913087 0)
(-0.00531387 -0.907025 0)
(-0.00799614 -0.90317 0)
(-0.0108067 -0.901265 0)
(-0.0138798 -0.900964 0)
(-0.0173609 -0.90196 0)
(-0.0214175 -0.904005 0)
(-0.0262458 -0.906919 0)
(-0.0320746 -0.910588 0)
(-0.0391675 -0.914942 0)
(-0.0478225 -0.919917 0)
(-0.0583714 -0.925416 0)
(-0.0711794 -0.931243 0)
(-0.0866413 -0.937035 0)
(-0.105169 -0.942174 0)
(-0.127176 -0.9457 0)
(-0.153079 -0.946275 0)
(-0.183404 -0.942309 0)
(-0.21892 -0.932347 0)
(-0.260269 -0.915755 0)
(-0.309639 -0.894236 0)
(0.00117171 -0.918949 0)
(0.000301206 -0.917367 0)
(-0.00448163 -0.910303 0)
(-0.00681356 -0.904279 0)
(-0.00953343 -0.90037 0)
(-0.0122836 -0.898273 0)
(-0.0152957 -0.897621 0)
(-0.0187703 -0.898088 0)
(-0.0229086 -0.899403 0)
(-0.0279272 -0.901366 0)
(-0.034066 -0.903832 0)
(-0.0415906 -0.906696 0)
(-0.0507928 -0.909863 0)
(-0.0619917 -0.9132 0)
(-0.0755369 -0.916489 0)
(-0.091809 -0.919352 0)
(-0.111207 -0.921167 0)
(-0.134124 -0.920969 0)
(-0.160935 -0.917387 0)
(-0.192075 -0.908695 0)
(-0.22817 -0.893112 0)
(-0.269756 -0.869417 0)
(-0.318822 -0.838513 0)
(0.000929618 -0.920274 0)
(0.000103573 -0.913318 0)
(-0.00626331 -0.907134 0)
(-0.00831139 -0.901502 0)
(-0.0108831 -0.897689 0)
(-0.0133877 -0.895441 0)
(-0.0161528 -0.89441 0)
(-0.0194264 -0.89428 0)
(-0.0234318 -0.894781 0)
(-0.0283954 -0.895696 0)
(-0.0345584 -0.896862 0)
(-0.0421813 -0.898148 0)
(-0.051545 -0.899425 0)
(-0.0629527 -0.900534 0)
(-0.0767349 -0.901232 0)
(-0.093252 -0.901133 0)
(-0.112882 -0.899616 0)
(-0.13599 -0.895729 0)
(-0.1629 -0.888092 0)
(-0.193948 -0.874892 0)
(-0.229598 -0.854085 0)
(-0.270246 -0.823921 0)
(-0.317597 -0.784515 0)
(-0.00104622 -0.92112 0)
(-5.90849e-05 -0.908138 0)
(-0.00853424 -0.903815 0)
(-0.00981509 -0.898959 0)
(-0.0119945 -0.895365 0)
(-0.0140491 -0.892984 0)
(-0.0163803 -0.891543 0)
(-0.0192654 -0.890762 0)
(-0.0229324 -0.890384 0)
(-0.0276023 -0.890191 0)
(-0.0335067 -0.890006 0)
(-0.0408934 -0.889672 0)
(-0.0500288 -0.889034 0)
(-0.0611987 -0.887904 0)
(-0.074714 -0.886019 0)
(-0.0909142 -0.882986 0)
(-0.110155 -0.878197 0)
(-0.132771 -0.870727 0)
(-0.15904 -0.85922 0)
(-0.189191 -0.841828 0)
(-0.223514 -0.816316 0)
(-0.262244 -0.780484 0)
(-0.306752 -0.73369 0)
(-0.00702226 -0.919816 0)
(-0.000441703 -0.902032 0)
(-0.0114154 -0.900717 0)
(-0.0112805 -0.896948 0)
(-0.0127836 -0.893606 0)
(-0.01419 -0.891065 0)
(-0.0159228 -0.889171 0)
(-0.0182583 -0.887695 0)
(-0.0214054 -0.886402 0)
(-0.025562 -0.885081 0)
(-0.0309378 -0.883541 0)
(-0.0377604 -0.881604 0)
(-0.0462768 -0.879085 0)
(-0.0567545 -0.875766 0)
(-0.069486 -0.871365 0)
(-0.0847935 -0.865482 0)
(-0.103016 -0.85753 0)
(-0.124471 -0.846629 0)
(-0.149395 -0.831481 0)
(-0.177932 -0.810262 0)
(-0.2102 -0.780631 0)
(-0.246252 -0.740021 0)
(-0.287103 -0.687072 0)
(-0.0198906 -0.915639 0)
(-0.00135794 -0.895607 0)
(-0.0148684 -0.89825 0)
(-0.0125427 -0.895705 0)
(-0.0131012 -0.892513 0)
(-0.0137183 -0.88972 0)
(-0.014743 -0.887311 0)
(-0.0164174 -0.885107 0)
(-0.0189067 -0.882898 0)
(-0.0223674 -0.880472 0)
(-0.0269742 -0.877629 0)
(-0.0329247 -0.874165 0)
(-0.0404411 -0.869862 0)
(-0.0497695 -0.864472 0)
(-0.0611846 -0.857685 0)
(-0.0749947 -0.849095 0)
(-0.0915313 -0.838133 0)
(-0.111109 -0.823977 0)
(-0.133959 -0.805421 0)
(-0.160177 -0.780726 0)
(-0.189745 -0.747543 0)
(-0.222538 -0.703051 0)
(-0.259195 -0.645222 0)
(-0.0423774 -0.908761 0)
(-0.00194555 -0.891481 0)
(-0.0186078 -0.897302 0)
(-0.0133711 -0.895748 0)
(-0.0127502 -0.892434 0)
(-0.0125271 -0.889197 0)
(-0.0128207 -0.886175 0)
(-0.0137966 -0.883217 0)
(-0.0155554 -0.880118 0)
(-0.0181949 -0.876662 0)
(-0.0218421 -0.872626 0)
(-0.0266556 -0.867779 0)
(-0.032824 -0.861866 0)
(-0.0405648 -0.854601 0)
(-0.0501289 -0.845641 0)
(-0.0618071 -0.834558 0)
(-0.0759259 -0.820793 0)
(-0.0928132 -0.803574 0)
(-0.11273 -0.781803 0)
(-0.13579 -0.753883 0)
(-0.161924 -0.717565 0)
(-0.190886 -0.669907 0)
(-0.222931 -0.608297 0)
(-0.0779271 -0.893583 0)
(0.000148268 -0.896317 0)