/*--------------------------------*- C++ -*----------------------------------*\
| =========                 |                                                 |
| \\      /  F ield         | OpenFOAM: The Open Source CFD Toolbox           |
|  \\    /   O peration     | Version:  v2012                                 |
|   \\  /    A nd           | Website:  www.openfoam.com                      |
|    \\/     M anipulation  |                                                 |
\*---------------------------------------------------------------------------*/
FoamFile
{
    version     2.0;
    format      ascii;
    class       volScalarField;
    location    "0.1";
    object      alpha.water;
}
// * * * * * * * * * * * * * * * * * * * * * * * * * * * * * * * * * * * * * //

dimensions      [0 0 0 0 0 0 0];


internalField   nonuniform List<scalar> 
2268
(
1
1
1
1
1
1
1
1
1
1
1
1
0.999999
0.999998
0.999428
0.994651
0.983369
0.941485
0.707492
0.152083
0.01787
0.00688685
0.00466718
1
0.999999
1
1
1
1
1
1
1
1
1
1
0.999996
0.999764
0.99842
0.986023
0.88368
0.540295
0.187731
0.0760699
0.0232156
0.00494803
0.00256132
1
1
1
1
1
1
1
1
1
1
1
1
1
0.999799
0.996812
0.938942
0.6272
0.152848
0.0253006
0.0162308
0.0132924
0.00576179
0.00135834
1
1
1
1
1
1
1
1
1
1
1
1
1
1
0.988543
0.792437
0.288669
0.0293563
0.00999398
0.00520003
0.00242213
0.0022198
0.000762805
1
1
1
1
1
1
1
1
1
1
1
1
1
1
0.954185
0.546248
0.0714982
0.0121915
0.00454828
0.00203965
0.00105956
0.000680403
0.000448645
1
1
1
1
1
1
1
1
1
1
1
1
1
1
0.899473
0.334447
0.0212882
0.00700134
0.00242925
0.00106055
0.000599778
0.000349353
0.000255099
1
1
1
1
1
1
1
1
1
1
1
1
1
1
0.840568
0.211558
0.0145443
0.00454548
0.00145056
0.000596187
0.000321204
0.000169613
0.000138042
1
1
1
1
1
1
1
1
1
1
1
1
1
1
0.764412
0.132801
0.0102106
0.00304943
0.000903268
0.000320736
0.000148679
6.74468e-05
5.54178e-05
2.88255e-17
1.84269e-17
5.14468e-18
3.95359e-19
1.11346e-20
5.27474e-22
4.20854e-23
3.03859e-24
1.58273e-25
7.32883e-27
3.05574e-28
1.11775e-29
3.50352e-31
9.11574e-33
1.87367e-34
2.80202e-36
2.63402e-38
9.71894e-41
3.78781e-41
1.68221e-16
5.26647e-16
3.23476e-16
2.73975e-17
6.10991e-19
2.4917e-20
1.8098e-21
1.10579e-22
5.26809e-24
2.26228e-25
8.74646e-27
2.96044e-28
8.51856e-30
2.00243e-31
3.61695e-33
4.52478e-35
3.20591e-37
7.84831e-40
3.78781e-41
1.414e-14
2.40884e-14
1.05242e-14
6.79736e-16
1.59686e-17
6.42262e-19
3.95247e-20
2.03262e-21
8.74093e-23
3.42137e-24
1.20315e-25
3.69487e-27
9.58677e-29
2.00582e-30
3.13853e-32
3.15262e-34
2.31268e-36
9.68079e-39
6.4289e-40
3.69285e-13
5.51122e-13
2.16314e-13
1.2006e-14
3.03135e-16
1.19328e-17
6.13709e-19
2.71444e-20
1.06629e-21
3.8287e-23
1.2299e-24
3.43047e-26
7.9869e-28
1.45669e-29
2.0505e-31
2.581e-33
2.24094e-35
1.00713e-37
9.50623e-39
2.1592e-12
6.62506e-12
3.22633e-12
1.79835e-13
4.18987e-15
1.61938e-16
7.29009e-18
2.91247e-19
1.0623e-20
3.5311e-22
1.04284e-23
2.64294e-25
5.4563e-27
1.05335e-28
1.74259e-30
2.20566e-32
1.93052e-34
8.87168e-37
1.00525e-37
1.80585e-11
8.80208e-11
4.20975e-11
1.82433e-12
4.29821e-14
1.67373e-15
6.94691e-17
2.62962e-18
9.08873e-20
2.838e-21
7.79164e-23
1.80678e-24
4.2724e-26
8.6594e-28
1.41723e-29
1.78088e-31
1.56156e-33
7.56771e-36
9.19576e-37
3.01067e-09
2.34058e-09
2.49957e-10
7.27972e-12
2.89939e-13
1.26166e-14
5.10326e-16
1.89911e-17
6.43671e-19
1.95224e-20
5.17044e-22
1.27063e-23
3.03418e-25
6.13922e-27
1.00496e-28
1.26773e-30
1.11765e-32
5.52554e-35
7.62296e-36
2.38218e-08
8.23797e-09
2.42861e-10
1.1174e-11
1.09745e-12
5.96583e-14
2.47849e-15
9.49747e-17
3.28136e-18
1.00833e-19
2.69489e-21
6.48678e-23
1.55628e-24
3.19182e-26
5.31431e-28
6.82079e-30
6.10119e-32
3.16034e-34
5.53738e-35
1
1
1
1
1
1
1
1
1
1
1
1
1
0.999999
0.58505
0.0505535
0.00608931
0.00165626
0.000450609
0.000149712
6.74565e-05
2.68933e-05
1.831e-05
1
1
1
1
1
1
1
1
1
1
1
1
1
0.957932
0.318702
0.0110649
0.00288662
0.000788148
0.000215391
6.71954e-05
2.7001e-05
9.85199e-06
5.41054e-06
1
1
1
1
1
1
1
1
1
1
1
1
1
0.824072
0.136713
0.0052769
0.00126176
0.000343006
9.88349e-05
2.88827e-05
9.95496e-06
3.33941e-06
1.47007e-06
1
1
1
1
1
1
1
1
1
1
1
1
1
0.64892
0.0451319
0.00246444
0.000530349
0.000136843
3.84137e-05
1.09694e-05
3.43313e-06
1.08091e-06
3.85249e-07
1
1
1
1
1
1
1
1
1
1
1
1
1
0.451463
0.011232
0.00118665
0.000223403
5.26155e-05
1.37529e-05
3.75149e-06
1.09556e-06
3.22745e-07
9.84385e-08
1
1
1
1
1
1
1
1
1
1
1
1
0.970589
0.290872
0.00379549
0.000563481
9.25685e-05
1.97969e-05
4.68364e-06
1.19168e-06
3.24346e-07
9.00197e-08
2.4592e-08
1
1
1
1
1
1
1
1
1
1
1
1
0.897247
0.179255
0.00197352
0.000254358
3.70218e-05
7.12327e-06
1.51732e-06
3.56346e-07
9.03857e-08
2.38005e-08
6.36338e-09
1
1
1
1
1
1
1
1
1
1
1
1
0.817739
0.101875
0.000937644
0.000102534
1.34014e-05
2.38042e-06
4.62267e-07
1.00667e-07
2.41158e-08
6.1687e-09
1.75703e-09
1
1
1
1
1
1
1
1
1
1
1
0.999999
0.727677
0.0512699
0.000368169
3.54738e-05
4.18915e-06
7.23901e-07
1.31072e-07
2.70192e-08
6.28785e-09
1.71139e-09
5.49712e-10
0.999998
0.999998
0.999999
0.999999
0.999999
0.999999
0.999999
0.999999
0.999999
0.999998
0.999998
0.999997
0.631112
0.0209881
0.000129558
1.08204e-05
1.29814e-06
1.99133e-07
3.45069e-08
6.99078e-09
1.75976e-09
5.50894e-10
2.33178e-10
0.99999
0.999991
0.999994
0.999995
0.999996
0.999996
0.999995
0.999994
0.999993
0.999991
0.999989
0.999985
0.528756
0.00655626
4.33314e-05
3.03583e-06
3.72827e-07
5.08716e-08
8.76365e-09
1.922e-09
5.69909e-10
2.53013e-10
8.41889e-11
0.99995
0.999958
0.999968
0.999975
0.999977
0.999978
0.999976
0.999972
0.999966
0.999957
0.999946
0.999932
0.42088
0.00125956
1.44567e-05
8.18072e-07
8.75281e-08
1.2597e-08
2.45094e-09
6.25352e-10
2.77233e-10
9.82335e-11
2.16399e-11
0.999763
0.999798
0.999846
0.999873
0.999885
0.999886
0.999879
0.999861
0.999834
0.999798
0.999752
0.999692
0.315381
0.000342061
6.10368e-06
1.99436e-07
1.68465e-08
6.2932e-09
1.10265e-09
3.28127e-10
1.17987e-10
2.71434e-11
4.57034e-12
0.998895
0.999062
0.99926
0.999375
0.999429
0.999435
0.999401
0.999327
0.99921
0.999056
0.998874
0.998623
0.232894
0.000162366
3.31328e-06
2.32188e-08
6.46101e-09
4.08375e-09
5.80488e-10
1.55619e-10
3.62234e-11
6.03559e-12
8.39403e-13
0.994957
0.995712
0.996512
0.996991
0.997217
0.99724
0.997097
0.996787
0.996303
0.995657
0.994993
0.993966
0.188435
7.47753e-05
9.31173e-07
3.97989e-09
8.0636e-09
2.04856e-09
2.55958e-10
5.294e-11
8.48568e-12
1.13255e-12
1.33821e-13
0.887491
0.922732
0.947497
0.961587
0.967695
0.96782
0.963431
0.954002
0.938979
0.917616
0.895295
0.872855
0.160564
-2.88148e-06
-4.3116e-08
-3.97852e-10
1.33391e-09
6.59207e-10
8.68613e-11
1.30344e-11
1.59395e-12
1.84092e-13
1.84673e-14
0.23555
0.304765
0.362592
0.406219
0.42924
0.429147
0.411122
0.379189
0.337892
0.290224
0.245145
0.215372
0.0878605
-2.5557e-05
-9.56816e-08
-1.59717e-09
3.92286e-11
9.94412e-11
2.10553e-11
2.38965e-12
2.53912e-13
2.65521e-14
2.28188e-15
0
0
-2.28389e-18
-2.56975e-08
-1.00472e-07
-7.75591e-08
-3.18131e-08
-7.42984e-09
-4.73852e-11
2.26006e-11
1.69988e-09
1.24984e-07
0.00638017
0.000313962
1.26642e-09
9.23267e-11
8.4777e-12
8.82606e-12
3.61119e-12
3.52585e-13
3.54463e-14
3.41777e-15
2.53382e-16
-1.05836e-22
-1.71564e-11
-3.9229e-11
-2.37776e-10
-8.1321e-10
-1.19408e-09
-9.53497e-10
-3.39103e-10
-2.72169e-12
-8.03572e-18
2.25904e-11
1.69788e-09
8.89438e-09
7.48285e-05
7.97176e-11
7.51794e-12
1.9845e-12
7.63649e-13
4.61719e-13
4.39272e-14
4.30254e-15
3.87851e-16
2.4796e-17
-3.29007e-22
-5.07752e-21
-1.46634e-19
-2.1057e-18
3.01083e-17
1.49899e-15
2.80447e-14
1.68024e-13
3.26312e-12
2.95826e-11
8.08102e-11
3.8448e-10
2.20861e-09
7.28906e-11
8.64608e-12
1.95155e-12
-1.03632e-13
9.98665e-14
4.28036e-14
4.48849e-15
4.40831e-16
3.79949e-17
2.09046e-18
-5.89711e-22
-1.56309e-20
-4.32292e-19
-6.15611e-18
7.89613e-19
6.83252e-18
-1.19005e-18
-2.35121e-16
-1.00514e-14
-6.78943e-12
-2.37111e-10
2.58415e-09
1.6156e-07
2.01938e-07
1.57756e-11
1.84671e-13
2.26853e-14
3.3619e-15
1.95336e-15
3.3983e-16
3.6942e-17
3.13649e-18
1.47173e-19
-4.72137e-22
-2.48112e-20
-8.5629e-19
-2.0125e-17
-3.26301e-16
-3.79121e-15
-3.25212e-14
-2.08153e-13
-9.82591e-13
-3.28877e-12
-7.1672e-12
-8.29921e-12
-2.02251e-12
2.7258e-13
3.42803e-13
2.81985e-14
2.80224e-15
1.00307e-15
2.11762e-16
2.37763e-17
2.30645e-18
2.10793e-19
8.5239e-21
-6.17214e-23
-2.62096e-21
-6.24945e-20
-9.86539e-19
-1.093e-17
-8.7328e-17
-5.06003e-16
-2.07363e-15
-5.47615e-15
-6.03219e-15
7.02978e-15
1.09206e-13
2.35376e-13
2.17477e-13
1.8918e-14
2.16562e-15
2.28358e-16
8.56765e-17
1.69447e-17
1.86579e-18
1.69918e-19
1.08201e-20
5.75736e-22
-9.50422e-25
-3.50408e-23
-6.63055e-22
-7.99432e-21
-6.38817e-20
-3.18316e-19
-6.44027e-19
-6.02381e-27
1.31414e-18
3.48455e-17
1.46397e-15
1.19247e-14
2.52681e-14
2.27705e-14
9.46465e-16
3.40572e-16
2.73073e-17
4.49832e-18
1.04157e-18
1.25707e-19
1.2204e-20
6.90572e-22
3.89142e-23
-6.60201e-42
-1.62886e-37
-7.31209e-31
-5.28492e-29
-1.98485e-27
-5.2308e-26
2.95574e-23
6.0354e-25
-1.12706e-20
3.56403e-20
1.76258e-17
1.46963e-16
3.0689e-16
3.0773e-16
2.29085e-17
9.45738e-18
1.0137e-18
1.88095e-19
5.12392e-20
6.83676e-21
7.06052e-22
4.55951e-23
2.32946e-24
3.81137e-36
-1.34124e-33
-1.09882e-31
-4.34238e-30
-1.18709e-28
-2.7503e-27
-3.88969e-26
-4.71749e-24
-2.48145e-23
7.9427e-24
4.59719e-21
1.742e-19
1.41639e-18
3.29108e-18
3.45442e-18
5.08974e-20
4.60532e-20
5.55905e-21
1.9898e-21
3.04568e-22
3.42692e-23
2.60939e-24
1.24458e-25
-1.26456e-36
-1.01851e-34
-4.36218e-33
-1.32142e-31
-3.06638e-30
-5.70243e-29
-8.19059e-28
5.16392e-29
6.27484e-28
5.46354e-27
1.20461e-23
6.71387e-22
9.32224e-21
3.00173e-20
3.55618e-20
1.28438e-21
1.29496e-21
1.27993e-22
6.026e-23
1.10255e-23
1.38875e-24
1.16295e-25
5.66196e-27
1.30615e-42
1.30563e-40
4.68083e-39
2.72931e-38
-3.82517e-36
-1.23019e-34
-4.20909e-33
-7.84939e-32
-2.05811e-30
-1.3647e-28
1.10552e-26
6.45699e-25
1.44844e-23
7.95063e-23
1.38238e-22
1.23549e-22
1.61451e-23
6.83648e-24
1.33243e-24
3.20503e-25
4.67421e-26
4.27968e-27
2.1937e-28
2.2e-46
-2.40248e-43
-3.63407e-41
-2.05777e-39
-6.5309e-38
-1.71959e-36
-3.28351e-35
-5.36721e-34
-3.12265e-32
4.843e-33
4.69134e-30
2.04259e-28
7.43737e-27
1.82829e-25
1.02867e-24
1.62107e-24
2.68804e-25
1.37312e-25
2.24514e-26
7.37527e-27
1.29864e-27
1.33885e-28
7.34588e-30
-6.23816e-48
-1.77536e-45
-1.19991e-43
-4.05381e-42
-1.08523e-40
-2.40461e-39
-3.98669e-38
-7.65183e-37
2.12184e-37
4.29903e-36
2.14243e-33
1.32015e-31
3.57887e-30
1.15463e-28
1.67631e-27
6.66481e-27
9.70154e-27
2.0728e-27
3.62264e-28
1.31017e-28
2.95276e-29
3.53781e-30
2.14286e-31
1.6132e-53
2.3957e-51
-9.27059e-51
-7.49565e-48
8.57113e-47
-2.81891e-45
-2.43574e-43
-1.47675e-41
1.25749e-41
-1.57628e-38
2.58729e-37
8.13512e-35
2.2186e-33
6.91509e-32
2.84537e-30
3.16429e-29
7.47642e-29
3.32746e-29
5.97577e-30
1.75286e-30
5.44502e-31
7.8856e-32
5.42693e-33
4.40627e-57
-6.22015e-54
-6.50836e-52
-3.96796e-51
-5.05895e-49
-2.39519e-47
-9.66441e-46
-5.12905e-45
-8.8984e-43
2.48209e-43
8.28028e-41
3.21939e-38
1.2262e-36
3.04129e-35
1.02717e-33
2.97361e-32
2.5265e-31
5.77702e-31
7.00253e-32
1.87051e-32
8.02922e-33
1.47865e-33
1.19344e-34
-1.79052e-58
-1.70991e-56
-3.98127e-56
-1.79024e-53
-1.01367e-51
-3.27304e-50
-4.11843e-49
-1.09567e-47
1.76251e-47
4.24466e-46
1.00729e-44
4.26642e-42
6.61209e-40
2.0121e-38
6.41456e-37
3.95371e-35
8.80891e-34
3.14377e-33
1.45407e-33
3.13416e-34
9.26224e-35
2.32516e-35
2.28419e-36
5.6456e-65
1.19685e-62
1.16041e-60
6.47621e-59
-4.34803e-58
-2.84977e-56
4.67548e-54
2.0012e-52
6.76987e-51
1.8157e-49
5.62278e-48
3.81023e-46
2.02587e-43
9.73946e-42
2.96277e-40
1.2594e-38
6.1848e-37
8.0522e-36
2.26925e-35
3.48407e-36
9.05086e-37
3.0546e-37
3.81584e-38
4.51321e-69
-4.80302e-66
-8.80115e-64
-1.36106e-61
-6.84147e-60
-8.96282e-59
-6.52749e-58
-6.2414e-57
-2.1506e-55
-2.00925e-52
2.29857e-51
6.97832e-50
5.39485e-48
3.16904e-45
1.37693e-43
5.36089e-42
4.92634e-40
2.19528e-38
1.16462e-37
5.07626e-38
1.31278e-38
3.4298e-39
5.58626e-40
-3.28119e-71
-6.47384e-69
-8.32424e-67
-4.38478e-65
-7.4273e-64
-5.39106e-63
-4.17545e-61
-1.18646e-59
-1.31967e-57
1.07567e-56
5.30363e-55
1.94215e-53
7.45564e-52
4.49808e-49
6.50761e-47
3.08679e-45
2.28905e-43
1.89251e-41
2.78643e-40
7.08378e-40
1.31132e-40
3.33665e-41
7.32949e-42
1.32169e-77
1.50524e-75
-7.3953e-73
9.13472e-71
6.63043e-69
4.39485e-67
1.92564e-65
7.1319e-64
2.47818e-62
3.84331e-60
2.31577e-58
1.00613e-56
3.93073e-55
1.79633e-53
8.97147e-51
9.95533e-49
5.77287e-47
7.49024e-45
5.60788e-43
4.1274e-42
1.39793e-42
5.22019e-43
8.58693e-44
-9.60058e-81
-7.40639e-78
8.65334e-78
-2.52752e-74
-2.65425e-72
-2.55044e-70
-1.75826e-68
-1.04288e-66
-1.00277e-65
-1.94933e-63
1.78066e-62
9.79321e-61
5.0156e-59
2.43647e-57
1.49556e-55
1.87409e-52
3.38336e-50
8.92862e-48
1.27939e-45
1.33024e-44
1.43695e-44
5.57217e-45
9.17595e-46
5.08974e-88
-2.95001e-84
-1.46523e-80
-1.838e-78
-1.84911e-76
-1.30211e-74
-7.05515e-73
-1.67441e-71
-1.31521e-69
-1.07257e-68
1.12807e-66
8.2665e-65
5.81207e-63
3.96467e-61
2.6134e-59
1.95883e-57
2.96946e-54
1.00212e-51
3.78288e-49
2.27576e-47
1.16719e-46
5.04315e-47
1.16951e-47
-3.30846e-91
1.19919e-91
-1.2677e-87
-6.52666e-86
9.83779e-85
2.64804e-82
3.15496e-80
2.95186e-78
4.29592e-76
1.08388e-73
2.1328e-71
2.60904e-69
2.97569e-67
3.32527e-65
3.63695e-63
3.89481e-61
4.30152e-59
6.39921e-56
1.01565e-52
3.47998e-50
5.47838e-49
4.35842e-49
1.86176e-49
-6.90923e-99
-2.05145e-96
-3.21498e-94
-1.30709e-91
-2.36547e-91
-5.88033e-87
-2.79848e-84
-6.22076e-82
-5.71737e-80
-1.6082e-79
-1.81868e-78
2.64619e-76
1.19483e-73
4.3001e-71
1.45604e-68
4.75849e-66
1.52071e-63
5.97266e-61
2.7255e-56
4.83156e-53
1.92879e-51
3.00418e-51
2.53987e-51
-7.15319e-113
-9.38572e-108
0
-1.84158e-102
-4.78688e-99
-7.67357e-96
-5.63228e-93
-1.51969e-90
-2.481e-88
-4.29714e-86
-2.25191e-85
-9.59246e-85
-2.61095e-82
-8.90353e-80
-2.84939e-77
-8.63295e-75
-2.49274e-72
-6.88237e-70
3.3938e-61
2.38945e-56
4.45547e-54
2.20816e-53
1.84337e-52
1.09747e-05
3.57356e-06
9.57264e-07
1.50978e-07
9.60077e-06
6.17757e-06
9.77244e-07
2.50135e-07
2.07697e-06
1.64796e-06
9.65007e-07
8.14776e-08
2.05509e-07
1.51048e-07
1.0831e-07
2.882e-08
4.73234e-08
2.26507e-08
1.03532e-08
5.06515e-09
1.08715e-08
5.39872e-09
2.46479e-09
1.16236e-09
2.5002e-09
1.46986e-09
7.47587e-10
3.87698e-10
6.71698e-10
4.80191e-10
3.073e-10
1.46623e-10
1.93541e-10
1.63077e-10
9.61393e-11
3.62011e-11
7.55248e-11
4.45828e-11
1.9634e-11
6.79598e-12
1.96387e-11
9.25051e-12
3.57888e-12
1.15768e-12
3.82933e-12
1.69372e-12
5.95662e-13
1.81098e-13
6.97456e-13
2.79946e-13
8.94307e-14
2.58497e-14
1.20444e-13
4.12758e-14
1.19779e-14
3.34515e-15
1.93468e-14
5.30965e-15
1.4198e-15
3.90563e-16
2.47459e-15
5.83721e-16
1.48231e-16
4.1088e-17
2.56899e-16
5.60661e-17
1.37976e-17
3.88925e-18
2.25184e-17
4.79614e-18
1.16877e-18
3.41443e-19
1.64676e-18
3.60073e-19
8.91624e-20
2.78396e-20
9.99609e-20
2.24933e-20
5.94665e-21
2.0939e-21
7.50934e-21
1.51603e-21
3.76523e-22
1.45084e-22
5.6765e-22
1.10186e-22
2.64752e-23
9.27281e-24
3.76771e-23
7.31301e-24
1.77283e-24
5.72733e-25
2.24451e-24
4.35561e-25
1.0745e-25
3.55142e-26
1.19698e-25
2.34285e-26
5.93009e-27
2.05593e-27
5.69811e-27
1.13466e-27
2.97473e-28
1.09162e-28
2.41722e-28
4.93879e-29
1.35478e-29
5.35299e-30
9.12395e-30
1.93012e-30
5.59767e-31
2.42188e-31
3.0619e-31
6.7631e-32
2.12322e-32
1.11352e-32
9.13626e-33
2.12596e-33
7.37231e-34
4.97621e-34
2.42621e-34
6.00799e-35
2.33577e-35
2.06075e-35
5.74374e-36
1.53421e-36
6.7282e-37
7.77282e-37
1.21567e-37
3.56389e-38
1.7734e-38
2.62461e-38
2.31639e-39
7.52642e-40
4.32781e-40
7.88595e-40
3.98228e-41
1.45932e-41
1.02792e-41
2.18336e-41
6.1919e-43
2.70711e-43
3.27415e-43
5.95157e-43
8.9426e-45
4.55516e-45
9.06701e-45
1.51769e-44
1.22817e-46
8.79845e-47
1.88851e-46
3.69943e-46
1.59279e-48
2.04543e-48
3.44971e-48
8.27177e-48
2.45702e-50
3.76359e-50
5.93055e-50
1.64901e-49
5.52601e-52
5.69119e-52
8.35719e-52
2.16493e-51
3.81303e-52
5.52601e-52
5.54408e-52
6.24763e-52
1.99361e-08
2.15186e-09
2.14696e-10
2.22686e-11
3.42829e-12
2.8499e-13
1.41382e-14
6.30834e-16
2.57506e-17
9.34155e-19
2.96834e-20
8.1014e-22
1.84331e-23
3.31105e-25
4.78866e-27
6.09462e-29
5.64662e-31
2.76479e-33
3.16014e-34
4.24369e-08
5.48234e-09
5.72736e-10
6.00427e-11
5.88718e-12
7.49685e-13
4.92151e-14
2.32824e-15
1.03609e-16
4.10631e-18
1.43484e-19
4.36494e-21
1.13895e-22
2.49231e-24
4.41561e-26
5.95961e-28
5.398e-30
1.99136e-32
2.71509e-33
1.34684e-08
1.82482e-09
2.40483e-10
3.23167e-11
6.09562e-12
5.81431e-13
3.42828e-14
1.86912e-15
9.01338e-17
3.82775e-18
1.42638e-19
4.64604e-21
1.30622e-22
3.1167e-24
6.15204e-26
9.63313e-28
1.11127e-29
7.50298e-32
6.79156e-33
4.68768e-09
5.20525e-10
8.73343e-11
1.94809e-11
2.516e-12
1.88662e-13
1.25872e-14
7.41293e-16
3.83377e-17
1.74028e-18
6.91999e-20
2.39184e-21
7.14408e-23
1.82141e-24
3.8822e-26
6.67969e-28
8.71701e-30
7.43537e-32
2.09746e-33
1.57546e-09
1.93553e-10
4.42082e-11
7.22318e-12
6.66284e-13
5.27264e-14
3.641e-15
2.19964e-16
1.16461e-17
5.40516e-19
2.19497e-20
7.76551e-22
2.37565e-23
6.20945e-25
1.35974e-26
2.41303e-28
3.2703e-30
2.98048e-32
5.24999e-34
5.0237e-10
8.66765e-11
1.44517e-11
1.73697e-12
1.63844e-13
1.33032e-14
9.34709e-16
5.72392e-17
3.06509e-18
1.43648e-19
5.88364e-21
2.09781e-22
6.46562e-24
1.70279e-25
3.75944e-27
6.73368e-29
9.21992e-31
8.49816e-33
1.11643e-34
1.63146e-10
2.50523e-11
3.23949e-12
3.79211e-13
3.65032e-14
3.00047e-15
2.12899e-16
1.31392e-17
7.07917e-19
3.33378e-20
1.37072e-21
4.90302e-23
1.51576e-24
4.00597e-26
8.88688e-28
1.60296e-29
2.21741e-31
2.0795e-33
2.10028e-35
4.30433e-11
5.08396e-12
6.53026e-13
7.6301e-14
7.38736e-15
6.09425e-16
4.33598e-17
2.68067e-18
1.4456e-19
6.80896e-21
2.79854e-22
1.00038e-23
3.09107e-25
8.17135e-27
1.81607e-28
3.29014e-30
4.58755e-32
4.36383e-34
3.54519e-36
8.82663e-12
9.70885e-13
1.23504e-13
1.42316e-14
1.37015e-15
1.12548e-16
7.97644e-18
4.91191e-19
2.63811e-20
1.23741e-21
5.06451e-23
1.80308e-24
5.55197e-26
1.46427e-27
3.25319e-29
5.90905e-31
8.29261e-33
7.9854e-35
5.36254e-37
1.58338e-12
1.72528e-13
2.17562e-14
2.46033e-15
2.33882e-16
1.90117e-17
1.3348e-18
8.14784e-20
4.33973e-21
2.01946e-22
8.20341e-24
2.90047e-25
8.87796e-27
2.33122e-28
5.1691e-30
9.40221e-32
1.32695e-33
1.29217e-35
7.36884e-38
2.58357e-13
2.83254e-14
3.54846e-15
3.93335e-16
3.67794e-17
2.94593e-18
2.04049e-19
1.22992e-20
6.4741e-22
2.97968e-23
1.19812e-24
4.19728e-26
1.27465e-27
3.32735e-29
7.35529e-31
1.33889e-32
1.89992e-34
1.8705e-36
9.33384e-39
3.86054e-14
4.30114e-15
5.3511e-16
5.80929e-17
5.3304e-18
4.19416e-19
2.85702e-20
1.6955e-21
8.79669e-23
3.99487e-24
1.58678e-25
5.49834e-27
1.6544e-28
4.28901e-30
9.4469e-32
1.72081e-33
2.45619e-35
2.44536e-37
1.21951e-39
5.26765e-15
6.04451e-16
7.45865e-17
7.92368e-18
7.12139e-19
5.49201e-20
3.67065e-21
2.14005e-22
1.09224e-23
4.8861e-25
1.91445e-26
6.5542e-28
1.95236e-29
5.02453e-31
1.1027e-32
2.01101e-34
2.89009e-36
2.91345e-38
1.48005e-40
6.5325e-16
7.85702e-17
9.60244e-18
9.9761e-19
8.76992e-20
6.61802e-21
4.33292e-22
2.47811e-23
1.24265e-24
5.47026e-26
2.11258e-27
7.14189e-29
2.10561e-30
5.37993e-32
1.17707e-33
2.15145e-35
3.11804e-37
3.18875e-39
1.64472e-41
7.33578e-17
9.4389e-18
1.14044e-18
1.15842e-19
9.95171e-21
7.34095e-22
4.70374e-23
2.63706e-24
1.29849e-25
5.62282e-27
2.13997e-28
7.14408e-30
2.08528e-31
5.29301e-33
1.15576e-34
2.12062e-36
3.10589e-38
3.22998e-40
1.69369e-42
7.54066e-18
1.04573e-18
1.24624e-19
1.23925e-20
1.04003e-21
7.49657e-23
4.70011e-24
2.58294e-25
1.24906e-26
5.32202e-28
1.99691e-29
6.58705e-31
1.9051e-32
4.8095e-34
1.04978e-35
1.93772e-37
2.87557e-39
3.0494e-41
1.62751e-43
7.60867e-19
1.07328e-19
1.25819e-20
1.21807e-21
9.9908e-23
7.04718e-24
4.32713e-25
2.33263e-26
1.10872e-27
4.65245e-29
1.72274e-30
5.62113e-32
1.61298e-33
4.05662e-35
8.86959e-37
1.65132e-38
2.49058e-40
2.70148e-42
1.46929e-44
7.49571e-20
1.05607e-20
1.20426e-21
1.11841e-22
8.90986e-24
6.10763e-25
3.66962e-26
1.94484e-27
9.1056e-29
3.76855e-30
1.37914e-31
4.45826e-33
1.27147e-34
3.19227e-36
7.00943e-38
1.32027e-39
2.03072e-41
2.26031e-43
1.25385e-45
7.00636e-21
9.94737e-22
1.11468e-22
1.00359e-23
7.64819e-25
4.99922e-26
2.91109e-27
1.50844e-28
6.92832e-30
2.83533e-31
1.02824e-32
3.30071e-34
9.37595e-36
2.35576e-37
5.20985e-39
9.96175e-41
1.5683e-42
1.79714e-44
1.01702e-46
6.14633e-22
8.86414e-23
9.862e-24
8.68951e-25
6.40771e-26
4.04359e-27
2.26191e-28
1.1241e-29
4.98812e-31
2.00978e-32
7.1904e-34
2.28829e-35
6.4928e-37
1.63782e-38
3.66098e-40
7.1336e-42
1.15399e-43
1.36575e-45
7.87867e-48
5.04085e-23
7.43234e-24
8.26411e-25
7.17285e-26
5.17224e-27
3.18133e-28
1.72729e-29
8.32813e-31
3.58783e-32
1.39843e-33
4.8596e-35
1.51752e-36
4.29031e-38
1.08498e-39
2.45188e-41
4.87727e-43
8.13006e-45
9.96499e-47
5.85044e-49
3.85297e-24
5.84225e-25
6.54023e-26
5.63217e-27
3.99551e-28
2.40851e-29
1.27984e-30
6.039e-32
2.54537e-33
9.69517e-35
3.3018e-36
1.01274e-37
2.81838e-39
7.0781e-41
1.60714e-42
3.25356e-44
5.58639e-46
7.0996e-48
4.24783e-50
2.73607e-25
4.29432e-26
4.87732e-27
4.19745e-28
2.94889e-29
1.75284e-30
9.16357e-32
4.25066e-33
1.76181e-34
6.60604e-36
2.21832e-37
6.72187e-39
1.85416e-40
4.64906e-42
1.06408e-43
2.19532e-45
3.88173e-47
5.111e-49
3.11763e-51
1.80096e-26
2.94679e-27
3.42191e-28
2.96483e-29
2.07679e-30
1.2247e-31
6.33318e-33
2.9023e-34
1.18821e-35
4.40138e-37
1.46213e-38
4.39379e-40
1.20692e-41
3.03229e-43
7.0137e-45
1.4771e-46
2.69219e-48
3.67467e-50
2.28249e-52
1.10016e-27
1.8866e-28
2.25692e-29
1.98325e-30
1.39455e-31
8.20832e-33
4.2217e-34
1.92071e-35
7.8008e-37
2.86569e-38
9.45036e-40
2.82468e-41
7.74403e-43
1.9532e-44
4.57256e-46
9.84174e-48
1.8506e-49
2.6199e-51
1.65519e-53
6.24739e-29
1.12749e-29
1.39952e-30
1.25632e-31
8.92683e-33
5.2758e-34
2.71319e-35
1.23137e-36
4.98249e-38
1.82216e-39
5.98522e-41
1.78449e-42
4.89461e-44
1.24175e-45
2.94673e-47
6.48875e-49
1.25958e-50
1.85006e-52
1.18768e-54
3.30693e-30
6.30038e-31
8.16792e-32
7.54176e-33
5.44977e-34
3.25259e-35
1.6812e-36
7.64655e-38
3.09526e-39
1.13105e-40
3.71239e-42
1.10716e-43
3.04535e-45
7.78573e-47
1.87542e-48
4.22904e-50
8.47955e-52
1.2924e-53
8.42286e-56
1.63784e-31
3.30069e-32
4.4951e-33
4.29641e-34
3.17634e-35
1.92487e-36
1.00489e-37
4.60063e-39
1.87038e-40
6.85311e-42
2.25462e-43
6.74375e-45
1.86428e-46
4.81151e-48
1.17798e-49
2.72258e-51
5.64143e-53
8.92322e-55
5.89853e-57
7.59613e-33
1.62683e-33
2.33893e-34
2.32751e-35
1.77025e-36
1.09479e-37
5.79928e-39
2.68368e-40
1.09986e-41
4.05422e-43
1.34082e-44
4.03232e-46
1.12265e-47
2.92976e-49
7.299e-51
1.7304e-52
3.70687e-54
6.08488e-56
4.07628e-58
3.31223e-34
7.57295e-35
1.15436e-35
1.20212e-36
9.45339e-38
5.99419e-39
3.2356e-40
1.51932e-41
6.29888e-43
2.34309e-44
7.81103e-46
2.36734e-47
6.65068e-49
1.75759e-50
4.46058e-52
1.08546e-53
2.40477e-55
4.09639e-57
2.77875e-59
1.36197e-35
3.34213e-36
5.42304e-37
5.93677e-38
4.84885e-39
3.16568e-40
1.74812e-41
8.35901e-43
3.51702e-44
1.32405e-45
4.46042e-47
1.36529e-48
3.87713e-50
1.039e-51
2.68876e-53
6.72006e-55
1.54007e-56
2.72204e-58
1.8683e-60
5.28868e-37
1.403e-37
2.43367e-38
2.81234e-39
2.39528e-40
1.61633e-41
9.16355e-43
4.47672e-44
1.91721e-45
7.32405e-47
2.49905e-48
7.74059e-50
2.22551e-51
6.05506e-53
1.59911e-54
4.10693e-56
9.73811e-58
1.78554e-59
1.23911e-61
1.9427e-38
5.61678e-39
1.0468e-39
1.28204e-40
1.14285e-41
7.99868e-43
4.67076e-44
2.33824e-45
1.02202e-46
3.97131e-48
1.37537e-49
4.31852e-51
1.25886e-52
3.48106e-54
9.3888e-56
2.47881e-57
6.0819e-59
1.15656e-60
8.10978e-63
6.78247e-40
2.14832e-40
4.3291e-41
5.64209e-42
5.28243e-43
3.84684e-44
2.32055e-45
1.19363e-46
5.3377e-48
2.11428e-49
7.44604e-51
2.37378e-52
7.02445e-54
1.97601e-55
5.44607e-57
1.47858e-58
3.75403e-60
7.40161e-62
5.24099e-64
2.1634e-41
7.86612e-42
1.72623e-42
2.40472e-43
2.37263e-44
1.80315e-45
1.12668e-46
5.96919e-48
2.73695e-49
1.10724e-50
3.97196e-52
1.28741e-53
3.87154e-55
1.10875e-56
3.12412e-58
8.72376e-60
2.29193e-61
4.6836e-63
3.34722e-65
6.1626e-43
2.76252e-43
6.65519e-44
9.95742e-45
1.03884e-45
8.2622e-47
5.36063e-48
2.93167e-49
1.38094e-50
5.7155e-52
2.09144e-53
6.90035e-55
2.11071e-56
6.1577e-58
1.77443e-59
5.09675e-61
1.38543e-62
2.93319e-64
2.11477e-66
1.65692e-44
9.32043e-45
2.48776e-45
4.01849e-46
4.44796e-47
3.712e-48
2.50642e-49
1.41771e-50
6.87224e-52
2.91424e-53
1.08916e-54
3.66161e-56
1.1401e-57
3.38987e-59
9.99231e-61
2.95226e-62
8.30136e-64
1.82004e-65
1.32328e-67
4.24477e-46
3.02894e-46
9.04297e-47
1.58545e-47
1.86807e-48
1.63995e-49
1.15477e-50
6.76745e-52
3.381e-53
1.47088e-54
5.62075e-56
1.9271e-57
6.11171e-59
1.85273e-60
5.5871e-62
1.69778e-63
4.93678e-65
1.12026e-66
8.21086e-69
1.038e-47
9.51629e-48
3.20563e-48
6.13178e-49
7.71538e-50
7.14204e-51
5.25454e-52
3.19565e-53
1.64772e-54
7.36249e-56
2.87947e-57
1.0076e-58
3.2567e-60
1.00688e-61
3.10645e-63
9.70677e-65
2.91754e-66
6.84785e-68
5.05904e-70
2.47783e-49
2.87757e-49
1.11084e-49
2.32869e-50
3.1383e-51
3.07027e-52
2.3645e-53
1.49463e-54
7.9641e-56
3.65912e-57
1.46607e-58
5.24018e-60
1.72713e-61
5.44796e-63
1.71982e-64
5.5247e-66
1.71545e-67
4.1611e-69
2.94603e-71
5.1006e-51
6.83075e-51
3.43119e-51
8.2624e-52
1.22144e-52
1.28155e-53
1.04352e-54
6.90852e-56
3.82331e-57
1.80874e-58
7.43309e-60
2.71663e-61
9.13868e-63
2.94318e-64
9.5113e-66
3.14158e-67
1.00738e-68
2.5229e-70
1.64645e-72
9.61255e-52
1.60377e-51
3.59021e-52
5.29498e-53
5.54097e-54
4.52556e-55
3.04701e-56
1.72423e-57
8.75214e-59
4.29618e-60
1.82309e-61
6.85275e-63
2.36478e-64
7.81149e-66
2.59544e-67
8.85251e-69
2.94428e-70
7.64895e-72
1.64645e-72
)
;

boundaryField
{
    leftWall
    {
        type            zeroGradient;
    }
    rightWall
    {
        type            zeroGradient;
    }
    lowerWall
    {
        type            zeroGradient;
    }
    atmosphere
    {
        type            inletOutlet;
        inletValue      uniform 0;
        value           nonuniform List<scalar> 
46
(
0
0
0
0
0
0
0
0
0
0
0
0
0
0
0
0
0
0
0
0
0
2.20816e-53
1.84337e-52
3.81303e-52
5.52601e-52
5.54408e-52
6.24763e-52
9.61255e-52
1.60377e-51
3.59021e-52
5.29498e-53
5.54097e-54
4.52556e-55
3.04701e-56
1.72423e-57
8.75214e-59
4.29618e-60
1.82309e-61
6.85275e-63
2.36478e-64
7.81149e-66
2.59544e-67
8.85251e-69
2.94428e-70
7.64895e-72
1.64645e-72
)
;
    }
    defaultFaces
    {
        type            empty;
    }
}


// ************************************************************************* //
