/*--------------------------------*- C++ -*----------------------------------*\
| =========                 |                                                 |
| \\      /  F ield         | OpenFOAM: The Open Source CFD Toolbox           |
|  \\    /   O peration     | Version:  v2012                                 |
|   \\  /    A nd           | Website:  www.openfoam.com                      |
|    \\/     M anipulation  |                                                 |
\*---------------------------------------------------------------------------*/
FoamFile
{
    version     2.0;
    format      ascii;
    class       surfaceScalarField;
    location    "0.1";
    object      alphaPhi0.water;
}
// * * * * * * * * * * * * * * * * * * * * * * * * * * * * * * * * * * * * * //

dimensions      [0 3 -1 0 0 0 0];
oriented        oriented;


internalField   nonuniform List<scalar> 
4432
(
1.94708e-06
-1.94708e-06
6.44952e-06
-4.50242e-06
1.20336e-05
-5.58409e-06
1.79752e-05
-5.94156e-06
2.40443e-05
-6.06911e-06
3.02155e-05
-6.17123e-06
3.65729e-05
-6.35743e-06
4.32912e-05
-6.71827e-06
5.0608e-05
-7.31682e-06
5.88569e-05
-8.2489e-06
6.85601e-05
-9.70316e-06
8.01434e-05
-1.15833e-05
9.32756e-05
-1.31326e-05
0.000105496
-1.22204e-05
0.000112289
-7.11582e-06
0.000112637
-1.23319e-06
0.000109312
3.33703e-07
9.31886e-05
-2.08024e-06
3.16299e-05
-2.31428e-06
4.77196e-06
4.79586e-07
2.18057e-06
6.5272e-07
8.1625e-07
5.26226e-07
2.61296e-07
3.30482e-06
-5.2519e-06
7.92896e-06
-9.12658e-06
1.29753e-05
-1.06304e-05
1.82889e-05
-1.12552e-05
2.37913e-05
-1.15715e-05
2.94813e-05
-1.18611e-05
3.54319e-05
-1.23081e-05
4.17827e-05
-1.3069e-05
4.8735e-05
-1.42692e-05
5.65679e-05
-1.60817e-05
6.55579e-05
-1.86932e-05
7.58789e-05
-2.19043e-05
8.72779e-05
-2.45331e-05
9.82631e-05
-2.3297e-05
0.000106071
-1.53728e-05
0.000104511
-5.43916e-06
7.64668e-05
-1.02252e-06
2.935e-05
-1.24758e-06
9.22329e-06
-1.10361e-06
2.76806e-06
1.20687e-09
5.75016e-07
2.38685e-07
2.14148e-07
2.68793e-07
1.72838e-07
4.24059e-06
-9.49248e-06
8.85137e-06
-1.37374e-05
1.34976e-05
-1.52766e-05
1.83125e-05
-1.60701e-05
2.33291e-05
-1.65881e-05
2.85808e-05
-1.71128e-05
3.41392e-05
-1.78665e-05
4.01192e-05
-1.90491e-05
4.66856e-05
-2.08355e-05
5.4034e-05
-2.34301e-05
6.23181e-05
-2.69773e-05
7.15733e-05
-3.11595e-05
8.15687e-05
-3.45285e-05
9.14874e-05
-3.33085e-05
9.83767e-05
-2.37821e-05
8.17423e-05
-1.11288e-05
2.80479e-05
-2.01676e-06
5.00583e-06
-1.84605e-07
2.106e-06
-1.33946e-07
1.32638e-06
1.93779e-09
6.45764e-07
1.62113e-08
1.16373e-07
1.94555e-07
1.24352e-07
4.72411e-06
-1.42166e-05
9.37751e-06
-1.83908e-05
1.37925e-05
-1.96916e-05
1.82648e-05
-2.05425e-05
2.29155e-05
-2.12387e-05
2.78135e-05
-2.20108e-05
3.30345e-05
-2.30875e-05
3.86765e-05
-2.46912e-05
4.48657e-05
-2.70247e-05
5.17273e-05
-3.02917e-05
5.93278e-05
-3.45778e-05
6.76254e-05
-3.94571e-05
7.64261e-05
-4.33292e-05
8.5468e-05
-4.23504e-05
8.53587e-05
-3.17395e-05
4.54635e-05
-1.42335e-05
5.04974e-06
-1.32812e-06
1.76821e-06
1.4369e-08
8.10359e-07
2.38903e-08
3.55527e-07
3.04934e-08
1.61152e-07
6.02681e-08
6.35511e-08
9.81932e-08
9.13095e-08
4.90375e-06
-1.91203e-05
9.61963e-06
-2.31067e-05
1.39369e-05
-2.40089e-05
1.82057e-05
-2.48113e-05
2.26051e-05
-2.56381e-05
2.72357e-05
-2.66413e-05
3.21809e-05
-2.80327e-05
3.75266e-05
-3.00369e-05
4.33649e-05
-3.2863e-05
4.9765e-05
-3.66918e-05
5.67278e-05
-4.15405e-05
6.4152e-05
-4.68813e-05
7.18538e-05
-5.1031e-05
7.98902e-05
-5.03868e-05
6.54041e-05
-3.88145e-05
1.28441e-05
-1.3163e-05
1.79148e-06
-8.21645e-07
6.96078e-07
5.2135e-08
3.18549e-07
6.6028e-08
1.46022e-07
5.75701e-08
5.51347e-08
5.66679e-08
1.93555e-08
5.49462e-08
5.17898e-08
4.93084e-06
-2.40512e-05
9.709e-06
-2.78848e-05
1.40185e-05
-2.83183e-05
1.81941e-05
-2.89869e-05
2.2443e-05
-2.98871e-05
2.68893e-05
-3.10877e-05
3.16245e-05
-3.27678e-05
3.67262e-05
-3.51387e-05
4.22599e-05
-3.83966e-05
4.82512e-05
-4.26832e-05
5.46507e-05
-4.794e-05
6.13045e-05
-5.35351e-05
6.79969e-05
-5.77235e-05
7.48577e-05
-5.72475e-05
4.64906e-05
-4.33889e-05
2.99945e-06
-1.05711e-05
1.06414e-06
-6.96283e-07
4.0238e-07
9.46047e-08
1.55991e-07
9.97763e-08
5.91266e-08
6.43246e-08
1.83545e-08
3.90977e-08
7.09939e-09
2.82252e-08
2.48929e-08
4.92059e-06
-2.89718e-05
9.75629e-06
-3.27205e-05
1.41139e-05
-3.26759e-05
1.82788e-05
-3.31519e-05
2.24614e-05
-3.40697e-05
2.67992e-05
-3.54254e-05
3.13897e-05
-3.73584e-05
3.63055e-05
-4.00544e-05
4.15921e-05
-4.36832e-05
4.72448e-05
-4.83358e-05
5.31786e-05
-5.38739e-05
5.91964e-05
-5.95529e-05
6.50156e-05
-6.35426e-05
7.04529e-05
-6.2678e-05
3.30218e-05
-4.58396e-05
1.87263e-06
-8.09947e-06
6.597e-07
-7.07076e-07
2.19147e-07
1.2508e-07
7.30662e-08
1.10909e-07
2.56845e-08
5.72025e-08
8.31888e-09
2.57909e-08
4.47641e-09
1.42946e-08
1.03108e-08
4.92214e-06
-3.38939e-05
9.81224e-06
-3.76106e-05
1.42469e-05
-3.71106e-05
1.84556e-05
-3.73605e-05
2.2635e-05
-3.82491e-05
2.69257e-05
-3.97161e-05
3.14283e-05
-4.1861e-05
3.62113e-05
-4.48374e-05
4.13072e-05
-4.87791e-05
4.66935e-05
-5.37221e-05
5.22671e-05
-5.94475e-05
5.7797e-05
-6.50827e-05
6.29552e-05
-6.87006e-05
6.61825e-05
-6.58231e-05
2.25586e-05
-4.60515e-05
1.31199e-06
-5.77074e-06
3.80978e-07
-6.11967e-07
1.05665e-07
1.27519e-07
2.99071e-08
1.00958e-07
1.06172e-08
4.59348e-08
4.03608e-09
1.75187e-08
2.93411e-09
9.02914e-09
5.79911e-09
4.55954e-23
-1.42125e-21
4.64319e-22
-2.81059e-21
4.8454e-23
-2.07258e-22
2.68044e-24
-1.19549e-23
1.56591e-25
-3.59726e-25
8.34046e-27
-6.04039e-27
4.81799e-28
9.38041e-29
2.56493e-29
1.30153e-29
1.20021e-30
9.49269e-31
5.04123e-32
5.49995e-32
1.85801e-33
2.70679e-33
5.87773e-35
1.15042e-34
1.54851e-36
4.23687e-36
3.24173e-38
1.33203e-37
4.98816e-40
3.45003e-39
4.90627e-42
6.85232e-41
2.60101e-44
9.01397e-43
5.59668e-45
5.54267e-45
2.33358e-47
1.43198e-21
-6.83798e-21
2.49046e-20
-8.0228e-20
3.34333e-21
-1.70113e-20
1.26205e-22
-8.70461e-22
6.47857e-24
-2.44838e-23
3.55262e-25
-3.45005e-25
1.95234e-26
1.59758e-26
9.85687e-28
2.03698e-27
4.43295e-29
1.4228e-28
1.78568e-30
7.89289e-30
6.313e-32
3.71911e-31
1.91632e-33
1.51385e-32
4.84979e-35
5.32632e-34
9.80241e-37
1.59545e-35
1.48035e-38
3.93431e-37
1.49621e-40
7.50485e-39
8.29294e-43
9.86821e-41
7.14722e-45
7.03159e-43
1.59721e-45
9.91622e-20
-7.98766e-19
7.88167e-19
-3.27876e-18
8.02003e-20
-5.96088e-19
2.88318e-21
-2.68268e-20
1.44934e-22
-7.12755e-22
7.51597e-24
-8.05294e-24
3.86446e-25
5.73931e-25
1.80959e-26
6.20636e-26
7.61073e-28
3.99002e-27
2.86192e-29
2.05618e-28
9.44727e-31
9.02168e-30
2.68041e-32
3.42267e-31
6.3558e-34
1.12148e-32
1.21125e-35
3.12583e-34
1.75221e-37
7.18527e-36
1.97667e-39
1.29071e-37
1.38364e-41
1.65396e-39
1.51684e-43
1.26318e-41
4.09424e-44
3.16809e-18
-1.60087e-17
1.60834e-17
-7.00751e-17
1.39634e-18
-1.30249e-17
4.67313e-20
-5.25364e-19
2.31456e-21
-1.28562e-20
1.14457e-22
-9.44304e-23
5.56406e-24
1.33191e-23
2.45168e-25
1.23104e-24
9.74348e-27
7.33832e-26
3.45661e-28
3.54759e-27
1.07667e-29
1.46485e-28
2.8862e-31
5.23629e-30
6.48612e-33
1.6168e-31
1.22555e-34
4.25052e-33
1.95199e-36
9.25409e-35
2.27046e-38
1.59506e-36
1.69044e-40
2.00731e-38
2.30776e-42
1.60874e-40
6.35793e-43
6.2195e-17
7.36739e-17
2.31635e-16
-7.08254e-16
2.18184e-17
-2.11353e-16
5.86615e-19
-7.72258e-18
2.8567e-20
-1.63303e-19
1.37236e-21
-2.38447e-22
6.41906e-23
2.25619e-22
2.70855e-24
1.82701e-23
1.03092e-25
1.02371e-24
3.49863e-27
4.70739e-26
1.04259e-28
1.855e-27
2.67741e-30
6.33572e-29
6.26149e-32
1.87112e-30
1.23138e-33
4.72375e-32
1.92294e-35
9.91381e-34
2.23545e-37
1.65678e-35
1.73766e-39
2.06058e-37
2.54833e-41
1.70882e-39
7.69696e-42
1.59737e-15
-2.55866e-15
2.1604e-15
-4.50545e-15
2.13233e-16
-3.63703e-15
5.61871e-18
-8.05267e-17
2.78806e-19
-1.38944e-18
1.35063e-20
1.06618e-20
6.15451e-22
2.90969e-21
2.53394e-23
2.12764e-22
9.39322e-25
1.14068e-23
3.10123e-26
5.07542e-25
9.00123e-28
1.94149e-26
2.46146e-29
6.44686e-28
5.74483e-31
1.85997e-29
1.11259e-32
4.58138e-31
1.72685e-34
9.4031e-33
2.01964e-36
1.54739e-34
1.62112e-38
1.91981e-36
2.42838e-40
1.62602e-38
7.8999e-41
4.62303e-14
-1.12074e-13
2.24768e-14
-1.79511e-13
6.73076e-16
-8.61563e-15
3.56529e-17
-3.06373e-16
1.99597e-18
-5.58219e-18
9.9048e-20
1.85565e-19
4.48282e-21
2.58546e-20
1.83764e-22
1.76504e-21
6.76773e-24
9.25154e-23
2.21678e-25
4.06513e-24
6.6748e-27
1.54021e-25
1.82038e-28
5.08181e-27
4.24109e-30
1.45544e-28
8.2412e-32
3.56392e-30
1.28953e-33
7.29222e-32
1.53104e-35
1.20239e-33
1.26209e-37
1.50699e-35
2.02122e-39
1.30189e-37
6.71419e-40
7.1894e-13
-2.73232e-12
8.97841e-15
-2.43076e-13
5.56296e-16
-1.50513e-14
1.3727e-16
-5.48311e-16
9.47453e-18
-6.19095e-18
4.67471e-19
1.34788e-18
2.14882e-20
1.40969e-19
8.94419e-22
9.30248e-21
3.3366e-23
4.88113e-22
1.10546e-24
2.16543e-23
3.35665e-26
8.30209e-25
9.33589e-28
2.77086e-26
2.21807e-29
8.0369e-28
4.40104e-31
1.99501e-29
7.05723e-33
4.1479e-31
8.62594e-35
6.97751e-33
7.35569e-37
8.96759e-35
1.38911e-38
7.93853e-37
4.33106e-39
1.02875e-05
-4.41815e-05
2.08904e-05
-4.82135e-05
3.05713e-05
-4.67915e-05
3.97047e-05
-4.6494e-05
4.86504e-05
-4.71948e-05
5.76907e-05
-4.87565e-05
6.70358e-05
-5.12061e-05
7.68182e-05
-5.46198e-05
8.70794e-05
-5.90403e-05
9.77386e-05
-6.43814e-05
0.000108549
-7.02583e-05
0.000119122
-7.56552e-05
0.000129006
-7.85841e-05
0.000119149
-6.98008e-05
2.01981e-05
-3.44603e-05
1.71337e-06
-3.49717e-06
3.56011e-07
-2.98725e-07
6.7282e-08
1.12365e-07
1.7726e-08
6.18752e-08
9.47889e-09
2.27804e-08
4.53878e-09
7.69328e-09
4.56841e-09
2.95908e-09
1.32223e-09
3.82745e-09
1.00054e-05
-5.41868e-05
2.02241e-05
-5.84322e-05
2.9705e-05
-5.62724e-05
3.86799e-05
-5.54689e-05
4.73927e-05
-5.59076e-05
5.60618e-05
-5.74256e-05
6.48589e-05
-6.00032e-05
7.38873e-05
-6.36482e-05
8.31639e-05
-6.83168e-05
9.25996e-05
-7.38171e-05
0.000101984
-7.96424e-05
0.000110993
-8.46641e-05
0.000119219
-8.68116e-05
8.08433e-05
-7.59938e-05
3.99414e-06
-1.98428e-05
8.40365e-07
-2.194e-06
1.09125e-07
-7.89242e-08
1.47847e-08
6.86312e-08
5.3244e-09
3.06907e-08
3.53855e-09
9.97566e-09
2.00616e-09
3.05087e-09
1.78243e-09
9.27311e-10
3.67773e-10
1.23206e-09
9.48013e-06
-6.36669e-05
1.90051e-05
-6.79572e-05
2.7943e-05
-6.52102e-05
3.64543e-05
-6.39802e-05
4.46921e-05
-6.41454e-05
5.2807e-05
-6.55405e-05
6.09214e-05
-6.81177e-05
6.9105e-05
-7.18317e-05
7.73564e-05
-7.65683e-05
8.55909e-05
-8.20516e-05
9.36314e-05
-8.76828e-05
0.000101215
-9.22475e-05
0.00010783
-9.34268e-05
4.52014e-05
-6.99432e-05
2.14028e-06
-9.19221e-06
3.38126e-07
-1.26727e-06
2.58819e-08
1.17062e-08
4.20865e-10
3.58009e-08
1.78024e-10
1.24381e-08
6.72816e-10
3.58657e-09
4.9572e-10
1.00859e-09
4.31775e-10
2.80391e-10
8.83843e-11
3.12187e-10
8.82518e-06
-7.24921e-05
1.75132e-05
-7.66452e-05
2.57346e-05
-7.34316e-05
3.36085e-05
-7.18541e-05
4.12272e-05
-7.1764e-05
4.86864e-05
-7.29998e-05
5.60644e-05
-7.54956e-05
6.33993e-05
-7.91667e-05
7.0676e-05
-8.3845e-05
7.78179e-05
-8.91935e-05
8.46813e-05
-9.45463e-05
9.10596e-05
-9.86258e-05
9.49257e-05
-9.72928e-05
1.81454e-05
-5.71529e-05
1.16024e-06
-4.73737e-06
1.03574e-07
-5.91427e-07
3.83558e-09
2.532e-08
-5.49164e-10
1.779e-08
3.20899e-11
4.83729e-09
1.94292e-10
1.21054e-09
1.33015e-10
3.12687e-10
9.87645e-11
8.03246e-11
1.98291e-11
6.65291e-11
8.11348e-06
-8.06056e-05
1.59273e-05
-8.4459e-05
2.33684e-05
-8.08727e-05
3.05265e-05
-7.90122e-05
3.74551e-05
-7.86926e-05
4.42122e-05
-7.97569e-05
5.08421e-05
-8.21255e-05
5.73589e-05
-8.56835e-05
6.37373e-05
-9.02234e-05
6.99102e-05
-9.53663e-05
7.57683e-05
-0.000100404
8.11612e-05
-0.000104019
7.43121e-05
-9.76659e-05
5.31916e-06
-4.12259e-05
5.4994e-07
-2.8867e-06
2.98531e-08
-2.46759e-07
-1.5018e-09
2.24936e-08
-5.80207e-10
8.57854e-09
-1.87092e-11
1.8346e-09
5.3642e-11
3.92775e-10
3.36783e-11
9.21451e-11
2.064e-11
2.20605e-11
4.83058e-12
1.1706e-11
7.37814e-06
-8.79837e-05
1.43296e-05
-9.14104e-05
2.09866e-05
-8.75297e-05
2.74104e-05
-8.54361e-05
3.36293e-05
-8.49115e-05
3.96764e-05
-8.5804e-05
4.55729e-05
-8.8022e-05
5.13162e-05
-9.14268e-05
5.6875e-05
-9.57822e-05
6.21901e-05
-0.000100681
6.71774e-05
-0.000105392
7.17273e-05
-0.000108569
5.03524e-05
-0.000100646
1.5857e-06
-2.78723e-05
2.48797e-07
-2.0803e-06
3.86594e-09
-8.636e-08
-2.14389e-09
1.49277e-08
-3.9819e-10
3.74732e-09
-2.74424e-11
6.49351e-10
1.21828e-11
1.20521e-10
7.96035e-12
2.58313e-11
4.11969e-12
5.87894e-12
1.27101e-12
2.04763e-12
6.63735e-06
-9.46211e-05
1.27584e-05
-9.75315e-05
1.86545e-05
-9.34258e-05
2.43573e-05
-9.11388e-05
2.98769e-05
-9.04311e-05
3.523e-05
-9.11571e-05
4.0423e-05
-9.3215e-05
4.54431e-05
-9.64469e-05
5.02569e-05
-0.000100596
5.48129e-05
-0.000105237
5.90476e-05
-0.000109626
6.28853e-05
-0.000112406
3.4924e-05
-9.66931e-05
1.08145e-06
-1.77556e-05
1.04747e-07
-1.3961e-06
-2.99826e-09
-1.91143e-08
-1.42005e-09
7.79199e-09
-1.99028e-10
1.39698e-09
-1.57368e-11
2.03661e-10
2.17199e-12
3.40491e-11
1.77458e-12
6.86968e-12
8.38884e-13
1.52256e-12
3.46132e-13
3.76718e-13
5.90314e-06
-0.000100524
1.1234e-05
-0.000102862
1.64031e-05
-9.85948e-05
2.14121e-05
-9.61478e-05
2.62574e-05
-9.52765e-05
3.09447e-05
-9.58444e-05
3.54708e-05
-9.77411e-05
3.98182e-05
-0.000100794
4.39546e-05
-0.000104732
4.78377e-05
-0.000109121
5.1421e-05
-0.00011321
5.46552e-05
-0.00011564
2.27149e-05
-9.05433e-05
7.74161e-07
-1.05847e-05
3.51062e-08
-8.10913e-07
-3.10429e-09
1.71945e-09
-6.60337e-10
3.22998e-09
-7.55537e-11
4.28672e-10
-5.98387e-12
5.4645e-11
3.0571e-13
8.70711e-12
3.79062e-13
1.73028e-12
1.766e-13
4.03354e-13
9.28676e-14
7.9901e-14
5.18532e-06
-0.000105709
9.7696e-06
-0.000107447
1.42484e-05
-0.000103074
1.85959e-05
-0.000100495
2.27977e-05
-9.94783e-05
2.68513e-05
-9.9898e-05
3.07483e-05
-0.000101638
3.44698e-05
-0.000104516
3.79884e-05
-0.000108251
4.12727e-05
-0.000112405
4.42922e-05
-0.000116229
4.7011e-05
-0.000118359
1.34416e-05
-8.25809e-05
4.67906e-07
-5.88279e-06
5.97889e-09
-4.06709e-07
-1.81773e-09
3.64008e-09
-2.26624e-10
1.07656e-09
-2.17381e-11
1.0848e-10
-1.64151e-12
1.25256e-11
3.95284e-14
2.03028e-12
8.55445e-14
4.35425e-13
3.76908e-14
1.08594e-13
4.13136e-14
1.52831e-14
4.49108e-06
-0.0001102
8.37316e-06
-0.000111328
1.21994e-05
-0.0001069
1.59195e-05
-0.000104215
1.951e-05
-0.000103069
2.29628e-05
-0.000103351
2.62662e-05
-0.000104941
2.94032e-05
-0.000107652
3.23541e-05
-0.000111202
3.51022e-05
-0.000115153
3.76347e-05
-0.000118761
3.99174e-05
-0.000120641
6.90415e-06
-7.31232e-05
2.45475e-07
-3.00624e-06
-6.93228e-10
-1.77056e-07
-6.58503e-10
2.17586e-09
-5.93448e-11
3.25716e-10
-4.86919e-12
2.4432e-11
-3.43969e-13
2.5156e-12
1.27041e-14
4.64723e-13
2.01977e-14
1.14945e-13
1.34652e-14
4.72686e-14
1.59497e-14
4.84042e-15
3.82581e-06
-0.000114024
7.05242e-06
-0.000114553
1.02641e-05
-0.00011011
1.33911e-05
-0.000107341
1.64035e-05
-0.00010608
1.92879e-05
-0.000106234
2.20311e-05
-0.000107684
2.46189e-05
-0.000110239
2.70416e-05
-0.000113623
2.93007e-05
-0.00011741
3.14073e-05
-0.000120865
3.3311e-05
-0.000122542
2.67338e-06
-6.19006e-05
1.14445e-07
-1.71234e-06
-9.70958e-10
-6.44589e-08
-2.01917e-10
1.22874e-09
-1.36264e-11
1.01161e-10
-9.3706e-13
5.44431e-12
-5.62749e-14
4.73088e-13
5.50574e-15
1.18707e-13
8.78778e-15
5.18863e-14
4.32937e-15
1.90932e-14
4.31227e-15
8.88955e-16
3.20264e-06
-0.000117217
5.81992e-06
-0.000117162
8.45227e-06
-0.000112736
1.10213e-05
-0.000109905
1.34905e-05
-0.000108545
1.58417e-05
-0.000108581
1.80596e-05
-0.000109897
2.01314e-05
-0.000112305
2.20556e-05
-0.00011554
2.38526e-05
-0.000119198
2.55629e-05
-0.000122564
2.70405e-05
-0.000124005
1.01071e-06
-4.89901e-05
4.23419e-08
-1.02678e-06
-5.97252e-10
-2.10622e-08
-7.13234e-11
6.74335e-10
-3.05586e-12
3.26186e-11
-1.60387e-13
1.56143e-12
-6.75824e-15
1.73179e-13
4.52345e-15
5.8014e-14
2.78392e-15
2.2246e-14
8.86214e-16
5.51247e-15
9.62464e-16
1.17954e-16
2.58983e-06
-0.000119762
4.63507e-06
-0.00011917
6.74077e-06
-0.000114813
8.8074e-06
-0.000111948
1.07868e-05
-0.000110502
1.26555e-05
-0.000110428
1.43956e-05
-0.000111614
1.59936e-05
-0.000113877
1.74496e-05
-0.000116965
1.87933e-05
-0.000120503
2.00825e-05
-0.000123804
2.07349e-05
-0.000124596
3.40511e-07
-3.617e-05
1.37242e-08
-7.20775e-07
-3.65917e-10
-6.36383e-09
-2.59305e-11
3.48727e-10
-4.32642e-13
8.8681e-12
-1.12552e-14
5.89334e-13
8.40465e-16
8.92275e-14
1.05997e-15
2.72874e-14
4.81096e-16
7.0753e-15
1.25921e-16
1.30285e-15
1.89031e-16
1.174e-17
1.78384e-06
-0.000121344
3.34123e-06
-0.000120559
5.04742e-06
-0.000116387
6.72112e-06
-0.000113509
8.30562e-06
-0.000111984
9.77863e-06
-0.000111799
1.11218e-05
-0.000112849
1.23188e-05
-0.000114953
1.33623e-05
-0.000117864
1.42734e-05
-0.000121238
1.50568e-05
-0.000124374
1.41851e-05
-0.000123462
2.11087e-07
-2.78151e-05
4.25291e-09
-5.22837e-07
-2.25759e-10
-1.7798e-09
-5.99157e-12
1.38278e-10
-8.05632e-14
1.95908e-12
-1.0559e-14
2.69381e-13
-1.01507e-15
4.23564e-14
-6.76041e-17
9.86108e-15
2.23554e-17
1.82647e-15
9.69033e-18
2.65108e-16
3.26232e-17
7.31142e-19
6.14781e-07
-0.000121074
1.88406e-06
-0.000121096
3.35432e-06
-0.000117266
4.77117e-06
-0.000114414
6.08515e-06
-0.000112822
7.28526e-06
-0.000112527
8.35158e-06
-0.00011342
9.26396e-06
-0.000115317
1.00042e-05
-0.000117966
1.05836e-05
-0.00012105
1.08422e-05
-0.000123736
9.36419e-06
-0.0001209
1.43465e-07
-2.40353e-05
1.42847e-09
-3.83985e-07
-9.07341e-11
-2.00454e-10
-2.70659e-12
5.31605e-11
-1.09979e-13
7.50144e-13
-9.96148e-15
1.10636e-13
-1.11874e-15
1.61926e-14
-1.46949e-16
2.82647e-15
-1.4842e-17
3.91064e-16
-9.79261e-19
4.79305e-17
5.01996e-18
3.90852e-21
3.42672e-07
-8.58517e-05
8.88562e-07
-9.61558e-05
1.90095e-06
-0.000100411
3.0707e-06
-0.00010249
4.21902e-06
-0.000103127
5.29829e-06
-0.000102798
6.23982e-06
-0.000101923
7.0099e-06
-0.000100414
7.57046e-06
-9.7993e-05
7.91688e-06
-9.42895e-05
7.75722e-06
-8.99398e-05
6.37682e-06
-8.18128e-05
1.37923e-07
-1.92254e-05
4.48778e-10
-2.45004e-07
-4.40595e-11
2.95635e-10
-9.58901e-13
5.38109e-12
-5.16254e-14
2.07565e-13
-4.31553e-15
3.05658e-14
-5.25477e-16
4.76334e-15
-6.17295e-17
6.18351e-16
-6.45846e-18
7.14798e-17
-6.01281e-19
7.7973e-18
7.06728e-19
-4.63672e-20
1.30639e-06
-1.00944e-21
3.63145e-07
-4.54551e-06
4.87055e-07
-8.92665e-06
9.9941e-07
-1.35581e-05
1.59672e-06
-1.60532e-05
2.17711e-06
-1.58939e-05
2.55207e-06
-1.36768e-05
2.73728e-06
-1.0041e-05
2.72416e-06
-6.35881e-06
2.54377e-06
-2.74135e-06
2.17376e-06
-4.92121e-08
1.81539e-06
-8.40933e-10
1.89233e-07
-6.54727e-06
-3.01489e-10
-5.53813e-08
-4.5813e-12
1.92367e-11
-1.57218e-13
8.91209e-13
-1.28748e-14
3.72075e-14
-1.45518e-15
4.75639e-15
-1.67417e-16
1.00569e-15
-1.76521e-17
1.09016e-16
-1.72361e-18
1.15435e-17
-1.53646e-19
1.14414e-18
9.108e-20
-1.2152e-20
3.27479e-23
1.54534e-26
8.09974e-09
1.73482e-15
-8.97124e-10
4.64243e-15
2.55436e-08
2.81634e-14
8.07031e-08
9.58434e-14
1.34321e-07
1.40528e-13
1.55194e-07
1.12848e-13
1.40443e-07
4.06408e-14
1.04234e-07
3.31823e-16
5.00002e-08
-3.07469e-14
7.89597e-10
-2.20195e-12
5.22678e-12
-8.80778e-11
-1.49784e-09
-4.17079e-09
-1.89205e-11
-9.67185e-09
-8.10768e-13
1.31369e-12
-3.60471e-14
1.13727e-13
-2.9014e-15
3.66489e-15
-3.96998e-16
6.83518e-16
-4.14888e-17
1.62334e-16
-4.0079e-18
1.65425e-17
-3.59943e-19
1.65483e-18
-2.92708e-20
1.50761e-19
1.06397e-20
-2.09107e-21
-5.04513e-28
4.96076e-26
-9.00552e-17
5.15872e-25
-4.78471e-17
1.67621e-23
-2.19166e-16
2.48782e-22
-1.72599e-15
-2.10344e-20
-4.41345e-15
-1.04813e-18
-4.56477e-15
-2.05729e-17
-1.63823e-15
-1.68821e-16
-8.80035e-18
-1.49378e-15
-2.15805e-15
-2.02929e-14
-1.82646e-12
-3.83232e-13
-8.69046e-11
-3.73729e-12
-4.24116e-09
-1.26602e-11
-1.39174e-12
-5.27682e-12
-1.11208e-13
2.14952e-14
-3.69721e-15
8.46194e-15
-5.40694e-16
3.37311e-16
-8.43859e-17
8.82987e-17
-8.32123e-18
2.12355e-17
-7.50196e-19
2.1592e-18
-6.22495e-20
2.07257e-19
-4.58044e-21
1.76311e-20
1.11692e-21
-2.86323e-22
6.69233e-26
8.11446e-26
3.07039e-25
1.76137e-24
5.12252e-24
4.92698e-23
-3.44566e-22
7.0709e-22
-2.91839e-20
-4.20241e-21
-8.96221e-19
-3.26563e-19
-1.22367e-17
-8.807e-18
-4.21103e-17
-1.58942e-16
-7.16216e-16
-1.31036e-15
-5.70103e-15
-1.81269e-14
-9.15202e-14
-2.50867e-13
-1.16452e-12
-2.59818e-12
-5.03304e-13
-1.35251e-11
-2.38959e-14
-5.76459e-12
-7.78506e-15
3.8212e-15
-4.49694e-16
1.14289e-15
-6.62548e-17
5.08625e-17
-1.38597e-17
1.22623e-17
-1.35013e-18
2.28686e-18
-1.16522e-19
2.36674e-19
-9.0621e-21
2.23853e-20
-6.06297e-22
1.81113e-21
1.04542e-22
-3.31456e-23
1.71361e-25
5.97903e-26
3.08252e-24
2.89096e-24
5.63845e-23
9.58572e-23
-5.10751e-22
2.21346e-21
-4.06505e-20
3.55759e-20
-7.81223e-19
4.10867e-19
-1.30898e-17
3.50212e-18
-1.94153e-16
2.21954e-17
-1.60658e-15
1.02749e-16
-1.69447e-14
3.29814e-16
-1.76403e-13
6.56943e-16
-4.37625e-12
6.28585e-16
-2.26356e-11
1.00067e-16
-1.5629e-15
-3.87251e-18
-1.19975e-15
3.5413e-17
-6.00423e-17
2.14346e-17
-1.23587e-17
2.84034e-18
-2.0235e-18
9.01218e-19
-1.76041e-19
2.27495e-19
-1.50517e-20
2.41758e-20
-1.1168e-21
2.06552e-21
-6.85684e-23
1.62173e-22
8.95529e-24
-3.41923e-24
1.70803e-25
7.39133e-27
8.99668e-24
2.95895e-25
3.01347e-22
6.71674e-24
6.78245e-21
1.0277e-22
1.04669e-19
1.1171e-21
1.14452e-18
8.80167e-21
9.06217e-18
5.02684e-20
5.19179e-17
2.01824e-19
2.0856e-16
5.14715e-19
5.41033e-16
5.319e-19
7.36517e-16
-1.16477e-18
2.05524e-16
-6.58097e-18
-2.93327e-17
-9.53045e-18
-8.95642e-17
-6.51349e-18
-2.88204e-17
5.91233e-19
-3.328e-18
7.32477e-19
-9.14096e-19
1.65801e-19
-1.95031e-19
6.49734e-20
-1.93752e-20
1.94092e-20
-1.61753e-21
2.13644e-21
-1.16768e-22
1.9023e-22
-6.68859e-24
1.27796e-23
7.52832e-25
-3.08595e-25
2.03647e-26
1.06431e-28
8.32447e-25
3.76146e-27
1.8663e-23
6.75523e-26
2.74266e-22
7.83423e-25
2.79453e-21
6.08778e-24
2.00601e-20
2.96493e-23
9.96587e-20
5.85603e-23
3.14012e-19
-2.92339e-22
4.07482e-19
-2.88568e-21
-1.16782e-18
-2.39504e-20
-5.34144e-18
-2.24568e-19
-2.3283e-17
-1.09881e-18
-2.32088e-17
-8.7671e-19
-4.84122e-18
-6.4155e-19
-1.53712e-18
1.12506e-20
-2.41874e-19
2.53671e-20
-7.70058e-20
7.35449e-21
-1.74067e-20
4.00966e-21
-1.79304e-21
1.3196e-21
-1.50696e-22
1.56496e-22
-1.03836e-23
1.44896e-23
-5.75053e-25
9.90887e-25
5.5421e-26
-2.44262e-26
2.78597e-28
-6.73884e-34
9.6452e-27
-4.81781e-32
1.65144e-25
-1.79769e-30
1.72073e-24
-4.72683e-29
1.07171e-23
-9.68584e-28
2.639e-23
-1.61744e-26
-1.62149e-22
-2.25343e-25
-4.49542e-22
-4.94616e-24
-3.89685e-21
-4.28279e-23
-3.3412e-20
-2.33405e-22
-5.30025e-19
-2.5704e-21
-2.29864e-18
-1.38026e-20
-2.36874e-18
-1.98019e-20
-1.58251e-19
-9.59703e-21
-8.30538e-20
-2.87232e-23
-1.52891e-20
1.15473e-21
-4.97767e-21
2.87016e-22
-1.23942e-21
1.78328e-22
-1.36953e-22
7.12287e-23
-1.1817e-23
9.42837e-24
-8.04737e-25
9.14078e-25
-4.31196e-26
6.57957e-26
3.53608e-27
-1.69453e-27
-6.73136e-34
-7.47978e-37
-4.8794e-32
-5.72317e-35
-1.84409e-30
-2.25147e-33
-4.90409e-29
-6.17165e-32
-1.01596e-27
-1.31471e-30
-1.71587e-26
-2.28806e-29
-2.38784e-25
-3.16688e-28
-5.18465e-24
-4.15806e-27
-4.31075e-23
-3.39023e-26
-3.29588e-22
-2.24724e-25
-5.99977e-21
-2.02478e-24
-2.59526e-20
-1.79012e-23
-2.66725e-20
-8.31443e-23
-2.88041e-21
-1.08944e-22
-1.91881e-21
-2.86902e-23
-5.941e-22
5.39806e-24
-2.39193e-22
6.27371e-24
-6.97637e-23
5.67087e-24
-8.55163e-24
2.99171e-24
-7.76075e-25
4.62561e-25
-5.3438e-26
4.8498e-26
-2.8063e-27
3.69726e-27
1.96689e-28
-1.03022e-28
-7.48175e-37
-1.17083e-39
-5.75874e-35
-9.6236e-38
-2.28054e-33
-4.20439e-36
-6.29515e-32
-1.29755e-34
-1.35064e-30
-3.06675e-33
-2.36689e-29
-5.86311e-32
-3.31793e-28
-9.05302e-31
-2.4795e-27
-7.31559e-30
-3.99958e-26
-1.07934e-28
-2.79558e-25
-8.9778e-28
-3.35537e-24
-8.06032e-27
-5.0221e-23
-7.70096e-26
-2.35712e-22
-5.21877e-25
-2.58823e-22
-1.03703e-24
-2.35427e-23
-5.17407e-25
-1.52999e-23
9.88483e-27
-8.42255e-24
1.03173e-25
-3.06101e-24
1.08358e-25
-4.3362e-25
9.49151e-26
-4.24554e-26
1.82608e-26
-3.02456e-27
2.13893e-27
-1.58137e-28
1.7125e-28
9.37533e-30
-5.48764e-30
-6.83203e-40
-5.5013e-43
-7.27552e-38
-5.51543e-41
-3.5815e-36
-2.60279e-39
-1.10139e-34
-8.01985e-38
-2.63268e-33
-1.91223e-36
-5.15287e-32
-3.7338e-35
-8.09115e-31
-6.01544e-34
-1.18976e-29
-8.70411e-33
-1.19833e-28
-1.07626e-31
-1.0163e-27
-9.85139e-31
-1.17231e-26
-9.55265e-30
-2.23162e-25
-9.58663e-29
-1.69104e-24
-8.30316e-28
-2.33553e-24
-2.8007e-27
-1.57678e-25
-2.58451e-27
-2.75843e-25
-4.21195e-28
-2.04771e-25
8.24771e-28
-1.02589e-25
1.73071e-27
-1.77021e-26
2.17945e-27
-1.92569e-27
5.71676e-28
-1.44716e-28
7.78147e-29
-7.68942e-30
6.7271e-30
3.8433e-31
-2.56032e-31
-5.50238e-43
-1.90665e-46
-5.57124e-41
-2.10234e-44
-2.65941e-39
-1.08704e-42
-8.28728e-38
-3.65869e-41
-1.99268e-36
-9.44681e-40
-3.9275e-35
-1.99905e-38
-6.39492e-34
-3.49966e-37
-9.34757e-33
-5.52889e-36
-1.15963e-31
-7.41637e-35
-1.07649e-30
-7.44534e-34
-1.25651e-29
-8.07487e-33
-2.29177e-28
-8.14235e-32
-2.78965e-27
-7.82286e-31
-7.95005e-27
-6.99206e-30
-7.62993e-27
-2.21505e-29
-3.4427e-27
-1.37809e-29
-3.74608e-27
2.19534e-30
-2.56214e-27
1.96764e-29
-5.75095e-28
3.12052e-29
-7.19709e-29
1.38926e-29
-5.84887e-30
2.31332e-30
-3.22321e-31
2.23699e-31
1.36314e-32
-1.04632e-32
-1.90657e-46
-4.1897e-50
-2.13831e-44
-5.40799e-48
-1.11302e-42
-3.17367e-46
-3.69557e-41
-1.1494e-44
-9.63127e-40
-3.25431e-43
-2.05421e-38
-7.56176e-42
-3.67884e-37
-1.4719e-40
-5.70421e-36
-2.51763e-39
-7.3381e-35
-3.39614e-38
-8.35923e-34
-4.36911e-37
-9.48345e-33
-5.19234e-36
-1.22994e-31
-5.91659e-35
-2.39252e-30
-6.04713e-34
-3.37331e-29
-6.1061e-33
-8.0586e-29
-4.15566e-32
-2.88001e-29
-8.10587e-32
-5.22265e-29
-1.72854e-32
-4.31474e-29
1.09498e-31
-1.46226e-29
2.67964e-31
-2.20001e-30
2.53097e-31
-1.98965e-31
5.55343e-32
-1.16308e-32
6.24406e-33
4.16678e-34
-3.74607e-34
-5.49191e-50
-1.67424e-53
-5.73361e-48
-1.96793e-51
-2.69666e-46
-1.09248e-49
-1.04923e-44
-4.55365e-48
-3.11354e-43
-1.45045e-46
-7.37804e-42
-3.72229e-45
-1.4192e-40
-7.94434e-44
-2.42075e-39
-1.47909e-42
-3.63836e-38
-2.49898e-41
-4.73659e-37
-3.60549e-40
-5.854e-36
-4.76218e-39
-8.04972e-35
-6.10449e-38
-1.21516e-33
-7.01889e-37
-2.43936e-32
-7.61865e-36
-1.95392e-31
-8.79475e-35
-3.78402e-31
-4.73312e-34
-3.97539e-31
-4.31167e-34
-5.52987e-31
2.84517e-34
-2.83592e-31
2.09377e-33
-5.44646e-32
3.17537e-33
-5.67365e-33
1.05789e-33
-3.60847e-34
1.45331e-34
1.0958e-35
-1.17542e-35
-1.67453e-53
-2.40204e-57
-1.98512e-51
-3.15746e-55
-1.11183e-49
-1.95725e-53
-4.66008e-48
-9.06797e-52
-1.49896e-46
-3.22447e-50
-3.87613e-45
-9.22727e-49
-8.3221e-44
-2.19432e-47
-1.55539e-42
-4.54937e-46
-2.65369e-41
-8.6362e-45
-3.79526e-40
-1.37933e-43
-5.17777e-39
-2.10458e-42
-7.66564e-38
-3.04104e-41
-1.09469e-36
-4.04511e-40
-2.16414e-35
-4.8619e-39
-5.35172e-34
-5.68653e-38
-2.53105e-33
-5.94892e-37
-2.52565e-33
-2.16156e-36
-5.64761e-33
-5.12085e-37
-3.98804e-33
9.57681e-36
-1.07698e-33
1.86706e-35
-1.34957e-34
1.55429e-35
-9.61137e-36
2.79841e-36
2.47469e-37
-3.23418e-37
-2.40257e-57
-5.70125e-61
-3.16036e-55
-8.3874e-59
-1.96919e-53
-5.83765e-57
-9.36917e-52
-3.10128e-55
-3.33923e-50
-1.23597e-53
-9.49646e-49
-3.93463e-52
-2.24959e-47
-1.04127e-50
-4.75838e-46
-2.46409e-49
-8.7246e-45
-5.06309e-48
-1.49631e-43
-9.70384e-47
-2.26378e-42
-1.66772e-45
-3.57501e-41
-2.68831e-44
-5.69928e-40
-4.14412e-43
-9.11649e-39
-5.82888e-42
-2.13833e-37
-7.69641e-41
-3.57065e-36
-1.11249e-39
-1.55648e-35
-9.69957e-39
-3.51315e-35
-1.26785e-38
-3.3837e-35
1.97729e-38
-1.66413e-35
1.15307e-37
-2.66101e-36
1.65369e-37
-2.19446e-37
4.40932e-38
4.78842e-39
-7.80917e-39
-5.22158e-61
-4.93916e-65
-8.11435e-59
-8.57356e-63
-6.30718e-57
-7.39561e-61
-3.22938e-55
-4.26045e-59
-1.23913e-53
-1.856e-57
-3.91974e-52
-6.6305e-56
-1.0671e-50
-2.03097e-54
-2.53253e-49
-5.4397e-53
-5.39601e-48
-1.30589e-51
-1.02524e-46
-2.83267e-50
-1.77136e-45
-5.5761e-49
-2.88467e-44
-1.02999e-47
-5.28964e-43
-1.82194e-46
-9.09678e-42
-3.01495e-45
-1.94579e-40
-4.5721e-44
-7.49694e-39
-6.74283e-43
-6.9089e-38
-9.82013e-42
-1.02161e-37
-4.95337e-41
-2.85308e-37
1.13901e-42
-1.93281e-37
5.01631e-40
-4.31162e-38
9.66934e-40
-4.28732e-39
5.58759e-40
7.91803e-41
-1.65612e-40
-4.93983e-65
-6.37504e-69
-8.62887e-63
-1.26806e-66
-7.49548e-61
-1.25167e-64
-4.33552e-59
-8.2126e-63
-1.89825e-57
-4.08018e-61
-6.81594e-56
-1.66507e-59
-2.10138e-54
-5.84522e-58
-5.66356e-53
-1.79758e-56
-1.36799e-51
-4.96681e-55
-2.97305e-50
-1.23921e-53
-5.88203e-49
-2.82342e-52
-1.09274e-47
-6.04034e-51
-2.10855e-46
-1.21489e-49
-4.17821e-45
-2.36259e-48
-8.21498e-44
-4.28158e-47
-2.49819e-42
-7.27479e-46
-6.8085e-41
-1.33359e-44
-4.3278e-40
-1.78766e-43
-1.62023e-39
-2.85196e-43
-1.45446e-39
1.19653e-42
-5.66478e-40
5.01312e-42
-7.15066e-41
5.45732e-42
1.11491e-42
-3.08794e-42
-6.42483e-69
-4.63397e-73
-1.29278e-66
-1.08073e-70
-1.26015e-64
-1.21934e-68
-8.29783e-63
-9.21346e-67
-4.1464e-61
-5.28972e-65
-1.7116e-59
-2.51328e-63
-6.05393e-58
-1.02567e-61
-1.87315e-56
-3.66958e-60
-5.16224e-55
-1.17562e-58
-1.29277e-53
-3.41189e-57
-2.95505e-52
-9.13099e-56
-6.34263e-51
-2.29077e-54
-1.28371e-49
-5.41539e-53
-2.88076e-48
-1.22189e-51
-6.36384e-47
-2.67205e-50
-1.61824e-45
-5.42698e-49
-9.31538e-44
-1.09228e-47
-1.71371e-42
-2.19477e-46
-3.84372e-42
-1.19051e-45
-1.01999e-41
1.42966e-45
-5.90486e-42
2.37878e-44
-1.01455e-42
3.68706e-44
1.32372e-44
-5.06635e-44
-4.48246e-73
-1.95183e-77
-1.05601e-70
-5.54857e-75
-1.21332e-68
-7.3933e-73
-9.29644e-67
-6.57579e-71
-5.44578e-65
-4.4799e-69
-2.60481e-63
-2.50532e-67
-1.06205e-61
-1.19974e-65
-3.7876e-60
-5.05148e-64
-1.21501e-58
-1.91163e-62
-3.54733e-57
-6.61544e-61
-9.49054e-56
-2.104e-59
-2.38775e-54
-6.29613e-58
-5.66094e-53
-1.77895e-56
-1.2993e-51
-4.78161e-55
-3.41087e-50
-1.23935e-53
-9.08868e-49
-3.09404e-52
-4.27712e-47
-7.18116e-51
-1.56393e-45
-1.74437e-49
-1.10357e-44
-3.17011e-48
-5.64777e-44
-3.03765e-48
-4.56572e-44
7.6748e-47
-1.21747e-44
1.84954e-46
1.31102e-46
-7.31888e-46
-1.96544e-77
-1.13684e-81
-5.56764e-75
-4.17763e-79
-7.44577e-73
-6.66308e-77
-6.65312e-71
-7.04409e-75
-4.54731e-69
-5.72896e-73
-2.55117e-67
-3.85079e-71
-1.22515e-65
-2.22802e-69
-5.17272e-64
-1.13802e-67
-1.96243e-62
-5.23923e-66
-6.81718e-61
-2.2142e-64
-2.17491e-59
-8.61359e-63
-6.52614e-58
-3.15606e-61
-1.84895e-56
-1.09374e-59
-4.98564e-55
-3.61218e-58
-1.3428e-53
-1.14254e-56
-4.10374e-52
-3.48431e-55
-1.40542e-50