/*--------------------------------*- C++ -*----------------------------------*\
| =========                 |                                                 |
| \\      /  F ield         | OpenFOAM: The Open Source CFD Toolbox           |
|  \\    /   O peration     | Version:  v2012                                 |
|   \\  /    A nd           | Website:  www.openfoam.com                      |
|    \\/     M anipulation  |                                                 |
\*---------------------------------------------------------------------------*/
FoamFile
{
    version     2.0;
    format      ascii;
    class       volScalarField;
    location    "0.1";
    object      p_rgh;
}
// * * * * * * * * * * * * * * * * * * * * * * * * * * * * * * * * * * * * * //

dimensions      [1 -1 -2 0 0 0 0];


internalField   nonuniform List<scalar> 
2268
(
1794.26
1798.73
1795.87
1783.49
1759.94
1724.49
1676.81
1616.33
1541.91
1451.53
1341.29
1205.4
1037.05
831.001
594.648
365.97
199.319
108.636
62.2399
21.8204
9.25163
8.43929
9.78032
1792.77
1795.54
1790.47
1776.28
1751.53
1715.13
1666.49
1604.79
1528.7
1435.96
1322.4
1182.13
1009.28
801.612
568.178
342.68
174.696
74.1448
25.4886
11.6025
7.07019
6.86041
8.39043
1791.74
1793.38
1785.82
1769.21
1742.57
1704.6
1654.4
1590.87
1512.44
1416.6
1299.11
1154.5
978.585
771.22
538.776
310.217
134.012
30.8867
8.27961
6.31589
5.96985
5.91983
6.72909
1791.05
1792.49
1783.42
1764.81
1736.26
1696.53
1644.59
1579.16
1498.48
1399.95
1279.56
1132.44
955.89
749.258
512.063
262.829
73.3127
10.4918
5.78545
4.46784
3.94253
4.59818
5.37608
1790.75
1792.33
1782.65
1762.81
1732.76
1691.47
1637.93
1570.81
1488.29
1387.81
1265.71
1117.79
942.62
737.182
488.502
198.317
26.0663
6.93024
4.49489
3.66567
3.47386
3.80066
4.4364
1791.01
1792.85
1783.12
1762.71
1731.67
1689.17
1634.32
1565.81
1481.86
1380.05
1257.13
1109.66
937.404
734.482
470.186
141.265
13.4231
5.53811
3.78897
3.29356
3.21283
3.40748
3.77027
1791.97
1794.18
1784.76
1764.29
1732.74
1689.43
1633.59
1564.02
1479.03
1376.41
1253.32
1107.22
938.839
739.462
457.768
104.828
11.4544
4.68434
3.33508
3.0235
2.98067
3.09611
3.2078
1793.72
1796.17
1787.27
1767.07
1735.37
1691.6
1635.1
1564.82
1479.21
1376.28
1253.64
1109.58
944.687
748.039
438.405
75.3941
9.1897
4.01239
2.98922
2.78057
2.75064
2.7997
2.64684
0.949872
0.966389
0.973183
0.969605
0.958831
0.944013
0.927146
0.909492
0.891998
0.875329
0.859976
0.846252
0.834372
0.824453
0.816654
0.811095
0.807812
0.806686
0.80724
0.947129
0.963541
0.970434
0.967695
0.957947
0.94389
0.927504
0.910167
0.892871
0.87631
0.861011
0.847311
0.835437
0.82551
0.817685
0.812066
0.808618
0.807236
0.80749
0.942678
0.961472
0.968764
0.966567
0.957619
0.944178
0.92819
0.911084
0.893895
0.877367
0.862058
0.84833
0.836419
0.82644
0.818531
0.812773
0.809077
0.807407
0.80746
0.936367
0.960831
0.969462
0.967282
0.958447
0.945054
0.929085
0.911969
0.89472
0.878104
0.86269
0.848856
0.836838
0.826746
0.818694
0.812755
0.808836
0.807045
0.807137
0.928189
0.962201
0.972925
0.96998
0.960512
0.946536
0.930147
0.912752
0.895267
0.878439
0.862827
0.848808
0.836616
0.826359
0.818135
0.812028
0.807984
0.806248
0.806507
0.916359
0.967446
0.9803
0.974856
0.963826
0.948617
0.931348
0.913386
0.895492
0.87834
0.86245
0.84818
0.83576
0.825304
0.81691
0.810681
0.806627
0.805068
0.805525
0.894771
0.976771
0.993011
0.982379
0.968427
0.95129
0.93266
0.913825
0.895349
0.877769
0.861533
0.846961
0.834276
0.823604
0.815057
0.808767
0.804808
0.803499
0.804152
0.867741
0.986655
1.01001
0.992919
0.974291
0.954479
0.934063
0.914069
0.894855
0.876765
0.860137
0.845237
0.832269
0.821377
0.812693
0.80638
0.802581
0.801538
0.802359
1797.92
1800.14
1791.97
1772.26
1740.64
1696.61
1639.64
1568.94
1483.25
1380.94
1260.28
1120.15
958.039
763.947
372.053
36.8361
6.47054
3.20172
2.57918
2.47628
2.43489
2.33547
1.71645
1807.74
1809.56
1801.73
1782.71
1751.78
1708.41
1652.24
1582.68
1498.83
1399.48
1283.41
1149.42
991.047
777.489
236.498
12.1778
4.16306
2.47936
2.18747
2.14356
2.10098
2.00729
1.82085
1822.02
1823.22
1815.64
1797.53
1767.91
1726.21
1672.08
1605.11
1524.63
1429.76
1319.69
1192.81
1038.93
731.919
119.557
7.13176
2.79542
1.99402
1.89608
1.89521
1.89113
1.86761
1.8413
1841.09
1841.62
1834.31
1817.24
1789.29
1749.86
1698.6
1635.2
1559.14
1469.82
1366.71
1247.55
1099.78
636.608
47.1277
4.21427
1.97753
1.6626
1.66204
1.69067
1.708
1.70093
1.6634
1865.24
1865.18
1858.19
1842.25
1816.17
1779.35
1731.48
1672.28
1601.36
1518.29
1422.71
1311.39
1172.24
491.552
15.0026
2.70388
1.52373
1.43251
1.46817
1.5069
1.53124
1.53047
1.49952
1894.62
1894.08
1887.52
1872.78
1848.71
1814.74
1770.58
1716
1650.7
1574.4
1486.68
1383.16
1221.32
350.869
6.68213
1.87227
1.25512
1.25471
1.29905
1.34038
1.36903
1.37704
1.36089
1929.26
1928.34
1922.29
1908.84
1886.9
1855.95
1815.73
1766.07
1706.74
1637.6
1558.14
1462.99
1216.9
238.186
4.22991
1.35826
1.06534
1.09949
1.14505
1.18721
1.21873
1.2331
1.22724
1969.06
1967.86
1962.39
1950.3
1930.58
1902.78
1866.67
1822.14
1769.04
1707.33
1636.42
1550.25
1194.32
148.242
2.61154
1.0087
0.905197
0.953499
1.00029
1.04381
1.07782
1.09719
1.09972
2013.83
2012.44
2007.6
1996.9
1979.48
1954.91
1923.04
1883.77
1837.06
1782.96
1720.73
1643.97
1142.67
81.3332
1.47019
0.760332
0.75859
0.812221
0.862234
0.908738
0.946037
0.970498
0.980704
2063.17
2061.67
2057.52
2048.28
2033.19
2011.92
1984.35
1950.43
1910.18
1863.73
1810.21
1743.18
1063.16
36.2642
0.72665
0.562768
0.618213
0.675855
0.730964
0.781705
0.823156
0.852915
0.870089
2116.55
2115.08
2111.67
2103.94
2091.23
2073.28
2050.02
2021.46
1987.67
1948.83
1904.01
1846.91
953.062
12.4761
0.326234
0.401243
0.485415
0.548064
0.608103
0.66311
0.708962
0.743921
0.76735
2173.91
2172.47
2169.74
2163.43
2153.05
2138.36
2119.35
2096.07
2068.65
2037.35
2001.23
1954.24
809.354
2.89592
0.181183
0.28296
0.366634
0.431045
0.494405
0.553097
0.60319
0.643031
0.672036
2234.61
2232.93
2230.91
2225.97
2217.81
2206.26
2191.32
2173.11
2151.84
2127.84
2100.4
2064.16
645.12
1.0612
0.125891
0.187168
0.256511
0.321556
0.388301
0.450873
0.50525
0.54971
0.583687
2293.96
2292.8
2292.28
2289.37
2283.58
2275.05
2263.94
2250.44
2234.84
2217.68
2198.76
2174.36
505.077
0.614372
0.045904
0.0793276
0.143456
0.214445
0.28743
0.355343
0.414542
0.46354
0.501978
2347.22
2350.64
2352.16
2351.84
2348.61
2343.03
2335.5
2326.32
2315.82
2304.64
2293.52
2279.37
431.417
0.287213
-0.0804899
-0.0514141
0.022182
0.107523
0.190887
0.266071
0.330805
0.384343
0.426822
2168.7
2259.8
2316.9
2349.2
2361.34
2358.58
2344.78
2318.81
2279.56
2225.62
2170.27
2111.79
386.828
-0.217808
-0.252515
-0.205205
-0.105252
0.00270575
0.10018
0.183933
0.254435
0.312229
0.358214
609.433
789.56
934.966
1045.1
1102.56
1101.5
1055.1
973.492
868.003
746.251
631.208
553.793
222.689
-0.942039
-0.485131
-0.363379
-0.226193
-0.0926224
0.0193904
0.111222
0.186652
0.247794
0.29642
-1.52853
-0.652646
-1.24346
-1.31341
-1.36602
-1.39466
-1.41649
-1.43936
-1.46844
-1.50672
-1.49287
-1.4077
15.8885
-0.290447
-0.708076
-0.49725
-0.318773
-0.166917
-0.0458493
0.0508048
0.128938
0.191821
0.241908
-1.20044
-1.03556
-1.11318
-1.1316
-1.14591
-1.1594
-1.17391
-1.19146
-1.21377
-1.23961
-1.26207
-1.2818
-1.26787
-0.887897
-0.798823
-0.560254
-0.366024
-0.212226
-0.0914631
0.00459396
0.0821836
0.144742
0.194918
-1.07778
-1.03598
-1.0507
-1.06564
-1.08082
-1.09241
-1.10108
-1.10899
-1.11753
-1.12498
-1.12855
-1.13232
-1.11157
-0.952351
-0.733042
-0.533718
-0.365296
-0.228224
-0.117588
-0.0276683
0.0460875
0.10628
0.155222
-0.974685
-0.963582
-0.975624
-0.98742
-0.998878
-1.00561
-1.00748
-1.00608
-1.00242
-0.994628
-0.979149
-0.95326
-0.898218
-0.777723
-0.623262
-0.473379
-0.33988
-0.225655
-0.129497
-0.04878
0.0190319
0.0754253
0.122126
-0.884995
-0.888194
-0.897721
-0.905217
-0.909998
-0.910268
-0.905913
-0.897411
-0.884844
-0.86687
-0.840367
-0.801147
-0.738886
-0.64357
-0.5292
-0.415229
-0.309569
-0.215474
-0.13336
-0.0623129
-0.00112858
0.0508052
0.0946721
-0.806277
-0.813974
-0.822385
-0.827442
-0.828206
-0.824205
-0.815437
-0.801808
-0.782838
-0.757633
-0.724504
-0.680464
-0.62089
-0.543342
-0.455294
-0.366131
-0.281137
-0.203152
-0.133134
-0.0709802
-0.01625
0.0311074
0.0718777
-0.732512
-0.741307
-0.749688
-0.753923
-0.753103
-0.746972
-0.73546
-0.718497
-0.695748
-0.666727
-0.630742
-0.586504
-0.532224
-0.467844
-0.397375
-0.325676
-0.256094
-0.190804
-0.13084
-0.0764718
-0.0276799
0.0152604
0.0528762
-0.664344
-0.672819
-0.68091
-0.684878
-0.683524
-0.676446
-0.663471
-0.644754
-0.620429
-0.590438
-0.554662
-0.512757
-0.464306
-0.409863
-0.351724
-0.292575
-0.234548
-0.179212
-0.1275
-0.0798191
-0.0363625
0.00243774
0.0369595
-0.602149
-0.60988
-0.617476
-0.621137
-0.619427
-0.611845
-0.598292
-0.579154
-0.554922
-0.525854
-0.492099
-0.453737
-0.410888
-0.364197
-0.315091
-0.265229
-0.215999
-0.168529
-0.123606
-0.0816589
-0.0429576
-0.00797903
0.0235796
-0.545458
-0.552603
-0.55963
-0.562834
-0.560721
-0.552877
-0.539411
-0.520862
-0.497849
-0.470763
-0.439849
-0.40534
-0.367539
-0.327049
-0.284858
-0.242094
-0.199742
-0.158625
-0.119376
-0.0823838
-0.0479172
-0.0164332
0.0123361
-0.4939
-0.50051
-0.506842
-0.509437
-0.506932
-0.499132
-0.486327
-0.469054
-0.447886
-0.423223
-0.395339
-0.364516
-0.331123
-0.29571
-0.259033
-0.221926
-0.185146
-0.149308
-0.114897
-0.0822288
-0.0515348
-0.0232239
0.00295161
-0.446864
-0.452804
-0.458309
-0.460275
-0.457564
-0.450174
-0.438436
-0.422785
-0.403673
-0.381469
-0.35647
-0.328994
-0.299436
-0.268308
-0.236224
-0.203836
-0.171737
-0.140402
-0.110184
-0.0813155
-0.0539814
-0.0285387
-0.00475922
-0.403526
-0.408657
-0.413318
-0.414795
-0.412165
-0.40547
-0.394971
-0.380982
-0.363861
-0.343957
-0.321599
-0.297141
-0.270989
-0.243609
-0.215513
-0.18721
-0.159164
-0.13174
-0.105193
-0.0796784
-0.0553395
-0.0324901
-0.0109258
-0.363111
-0.367442
-0.371365
-0.372563
-0.37024
-0.364354
-0.355054
-0.342588
-0.327278
-0.30948
-0.289553
-0.267872
-0.244827
-0.220828
-0.19629
-0.171609
-0.147136
-0.123149
-0.0998346
-0.0772938
-0.0556392
-0.0351517
-0.0156532
-0.325177
-0.328838
-0.332182
-0.333252
-0.331294
-0.326143
-0.31788
-0.306743
-0.293066
-0.277221
-0.259579
-0.240502
-0.220342
-0.199438
-0.178117
-0.156678
-0.135384
-0.114442
-0.0939937
-0.0741127
-0.0548915
-0.0365851
-0.0190417
-0.289601
-0.292739
-0.295626
-0.296584
-0.294875
-0.290268
-0.282837
-0.272854
-0.260675
-0.246674
-0.231203
-0.214583
-0.197108
-0.179043
-0.160636
-0.142111
-0.12366
-0.105439
-0.0875622
-0.0700921
-0.0531126
-0.0368552
-0.0211915
-0.25632
-0.25903
-0.261498
-0.262243
-0.260572
-0.256282
-0.249501
-0.240538
-0.229759
-0.21751
-0.204097
-0.189782
-0.17479
-0.159319
-0.143551
-0.127651
-0.111761
-0.0960022
-0.0804669
-0.0652164
-0.0503359
-0.0360327
-0.0221979
-0.22515
-0.227462
-0.229462
-0.229838
-0.227993
-0.223839
-0.217581
-0.209555
-0.200101
-0.189515
-0.178037
-0.16586
-0.153146
-0.140037
-0.12666
-0.113137
-0.0995742
-0.0860662
-0.0726919
-0.0595126
-0.0466173
-0.0341942
-0.0221487
-0.195814
-0.197708
-0.199142
-0.199
-0.196838
-0.192721
-0.186933
-0.179802
-0.171617
-0.1626
-0.152919
-0.142705
-0.132067
-0.121098
-0.109888
-0.0985236
-0.0870873
-0.0756525
-0.0642857
-0.0530472
-0.0420312
-0.031418
-0.0211247
-0.167879
-0.169424
-0.170243
-0.169511
-0.166983
-0.162896
-0.157584
-0.151337
-0.144364
-0.136809
-0.128775
-0.120341
-0.111572
-0.102529
-0.093274
-0.0838685
-0.0743745
-0.0648487
-0.0553425
-0.0459107
-0.0366573
-0.0277779
-0.0192004
-0.1408
-0.142306
-0.142577
-0.141308
-0.138471
-0.134482
-0.129694
-0.124325
-0.118496
-0.112278
-0.105721
-0.0988681
-0.0917568
-0.0844255
-0.0769162
-0.0692746
-0.0615462
-0.0537698
-0.0459765
-0.038204
-0.0305733
-0.0233411
-0.0164503
-0.115216
-0.116762
-0.116383
-0.114622
-0.111583
-0.107797
-0.103585
-0.0990668
-0.0942773
-0.0892335
-0.083953
-0.0784583
-0.0727742
-0.0669276
-0.0609501
-0.0548762
-0.0487378
-0.042555
-0.0363266
-0.0300472
-0.0238429
-0.0181458
-0.0129561
-0.0926979
-0.0950664
-0.0931237
-0.0903823
-0.0871433
-0.0836413
-0.0800006
-0.0762249
-0.0722879
-0.0681786
-0.0639052
-0.0594878
-0.054951
-0.0503209
-0.0456261
-0.0408954
-0.0361509
-0.03139
-0.0265564
-0.0215326
-0.016353
-0.0120106
-0.00878052
-0.0688499
-0.0804944
-0.0736541
-0.0685291
-0.0650709
-0.0619487
-0.058839
-0.055662
-0.0523727
-0.0489617
-0.0454459
-0.0418551
-0.0382219
-0.0345782
-0.0309544
-0.027377
-0.0238592
-0.0203713
-0.0167659
-0.0126298
-0.00757254
-0.00419608
-0.0038635
-0.0325981
-0.0687223
-0.0492081
-0.0418764
-0.0385926
-0.0359985
-0.0335434
-0.0310995
-0.0286145
-0.0260869
-0.0235432
-0.0210202
-0.0185558
-0.0161834
-0.0139291
-0.0118073
-0.00981021
-0.00788492
-0.00582485
-0.00291151
0.00207952
0.00247754
0.000152893
0.456388
0.498731
0.719764
0.827525
1.51514
1.3853
1.29881
1.23037
1.71418
1.58382
1.45707
1.35917
1.5648
1.48564
1.40914
1.34315
1.44008
1.39092
1.33746
1.28654
1.32242
1.28711
1.24673
1.20786
1.20158
1.17695
1.14833
1.12054
1.08506
1.0695
1.0506
1.03189
0.975286
0.967119
0.9561
0.944744
0.872316
0.870221
0.865724
0.860456
0.775996
0.77896
0.779902
0.779711
0.686128
0.693341
0.698841
0.702902
0.602407
0.613212
0.622572
0.630247
0.524639
0.53849
0.551151
0.561927
0.452864
0.469318
0.484794
0.498211
0.387164
0.405835
0.423706
0.439346
0.327641
0.348104
0.367933
0.385394
0.274667
0.296414
0.317671
0.336476
0.228422
0.250911
0.273035
0.292668
0.18868
0.211379
0.233826
0.253803
0.154858
0.177302
0.199603
0.219511
0.126171
0.147996
0.169791
0.189315
0.101807
0.122754
0.14379
0.162716
0.0810367
0.100942
0.12106
0.139253
0.0632589
0.082034
0.101149
0.118535
0.0480064
0.0656224
0.0837
0.100244
0.034935
0.0514025
0.068439
0.0841244
0.0238011
0.0391509
0.0551539
0.0699685
0.0144303
0.0286972
0.0436727
0.0576002
0.00668592
0.0198968
0.0338423
0.0468604
0.000442237
0.0126104
0.0255148
0.0375979
-0.00442682
0.00669821
0.0185448
0.0296692
-0.0080428
0.00202941
0.0128006
0.0229473
-0.0105114
-0.00150364
0.00817658
0.0173301
-0.0119202
-0.0039853
0.00459131
0.0127366
-0.0123451
-0.0054867
0.00197593
0.00909702
-0.0118565
-0.00607414
0.000264234
0.00634075
-0.0105296
-0.00582318
-0.000622726
0.00438217
-0.00846784
-0.00484412
-0.000799787
0.00310341
-0.00583919
-0.00332882
-0.000462813
0.00230902
-0.00288913
-0.00160526
3.53236e-05
0.00166306
-0.00039659
-0.000252914
0.00015446
0.000621911
0.910322
1.01581
1.03917
1.01301
0.984805
0.959672
0.936063
0.914013
0.89351
0.874572
0.857328
0.841939
0.828563
0.81735
0.808467
0.802132
0.798578
0.797873
0.798889
1.14504
1.12007
1.08971
1.04125
0.998662
0.965008
0.936578
0.911644
0.889368
0.869303
0.851304
0.835375
0.8216
0.810108
0.801089
0.7948
0.791496
0.791096
0.792307
1.24413
1.16771
1.11032
1.0522
1.00319
0.964465
0.932634
0.905509
0.881834
0.860892
0.842344
0.826081
0.812119
0.800571
0.791633
0.785559
0.782557
0.782421
0.783769
1.25171
1.17025
1.1055
1.04611
0.996311
0.95613
0.922957
0.894831
0.87049
0.84916
0.830435
0.814144
0.800268
0.788904
0.780237
0.774493
0.771808
0.771873
0.77329
1.21307
1.14148
1.08087
1.02573
0.978813
0.939931
0.907298
0.879427
0.855277
0.83417
0.815723
0.799761
0.786258
0.775298
0.767047
0.761692
0.7593
0.759505
0.760937
1.15221
1.09441
1.04241
0.994326
0.95243
0.916697
0.886051
0.859518
0.836364
0.816083
0.798374
0.783098
0.770238
0.759871
0.752147
0.747215
0.745095
0.745396
0.746812
1.08075
1.03672
0.994731
0.954829
0.919041
0.887569
0.859911
0.835554
0.81407
0.795147
0.778594
0.764325
0.752345
0.742733
0.735623
0.73114
0.729279
0.729651
0.731032
1.00492
0.973281
0.941267
0.909704
0.880391
0.853749
0.829705
0.808114
0.788817
0.771684
0.756633
0.74364
0.732736
0.724009
0.717584
0.713575
0.711967
0.712395
0.713729
0.928155
0.907285
0.884524
0.86091
0.838005
0.816388
0.796289
0.777836
0.761086
0.746061
0.732777
0.721266
0.711589
0.703844
0.698159
0.694643
0.69329
0.693766
0.695042
0.852393
0.840767
0.826295
0.809987
0.793173
0.776531
0.76049
0.745368
0.731383
0.718674
0.707336
0.697447
0.689098
0.682402
0.677492
0.674485
0.673387
0.673907
0.675119
0.778749
0.775035
0.767864
0.758137
0.746973
0.735099
0.723072
0.711335
0.700211
0.689924
0.680626
0.672437
0.66547
0.659857
0.655741
0.65325
0.652407
0.652965
0.654108
0.707906
0.71097
0.710175
0.706303
0.700292
0.692889
0.684724
0.676311
0.668043
0.660195
0.65296
0.646487
0.640914
0.636388
0.633067
0.63109
0.630499
0.631094
0.632164
0.640322
0.6492
0.653942
0.65523
0.653857
0.650573
0.646041
0.640812
0.635311
0.629843
0.624628
0.619838
0.615632
0.612175
0.609634
0.60816
0.607817
0.608446
0.60944
0.576347
0.590204
0.599723
0.605516
0.608266
0.608714
0.607532
0.605278
0.602389
0.599183
0.595895
0.592714
0.58982
0.587389
0.585601
0.584615
0.584511
0.585171
0.586089
0.516308
0.534374
0.547963
0.557634
0.563993
0.567765
0.56961
0.570077
0.569595
0.568485
0.566991
0.565317
0.563656
0.562196
0.561125
0.560605
0.56073
0.561418
0.562258
0.460485
0.482025
0.499004
0.511949
0.521408
0.528081
0.532605
0.535502
0.537187
0.537977
0.538118
0.537827
0.537306
0.536752
0.536353
0.536274
0.536616
0.537329
0.538092
0.40899
0.433339
0.453073
0.468716
0.480776
0.489922
0.496758
0.501776
0.505369
0.507842
0.509446
0.510402
0.51092
0.511199
0.511425
0.511758
0.512302
0.513037
0.513725
0.361886
0.388366
0.410254
0.428063
0.442251
0.453454
0.462238
0.469062
0.474294
0.47823
0.481117
0.483181
0.484633
0.485669
0.486468
0.487182
0.487913
0.488665
0.489281
0.319203
0.347117
0.370562
0.390018
0.405887
0.418756
0.429142
0.437469
0.444078
0.449258
0.453251
0.456283
0.458563
0.46028
0.461599
0.46266
0.463562
0.464327
0.464875
0.280822
0.309518
0.333958
0.35457
0.37169
0.385848
0.397508
0.40705
0.414795
0.421013
0.425945
0.429812
0.432817
0.435137
0.436922
0.438296
0.439348
0.440118
0.440611
0.246481
0.275393
0.300331
0.321657
0.339636
0.354731
0.367353
0.377841
0.38649
0.393557
0.399272
0.40385
0.407482
0.410332
0.412528
0.414178
0.415359
0.41612
0.416586
0.215831
0.2445
0.269517
0.291176
0.309666
0.325381
0.338681
0.349866
0.359206
0.366943
0.373295
0.378466
0.382632
0.385939
0.388494
0.390383
0.391678
0.392443
0.39284
0.188495
0.21657
0.241328
0.262997
0.281695
0.297753
0.311477
0.323136
0.332974
0.341217
0.348071
0.353722
0.358332
0.362023
0.364883
0.366975
0.368362
0.369119
0.369454
0.164113
0.191336
0.215569
0.236981
0.255629
0.271786
0.285714
0.297648
0.307813
0.316414
0.323643
0.32967
0.334635
0.33864
0.341749
0.344006
0.345464
0.346206
0.346479
0.142365
0.168553
0.192051
0.212987
0.231368
0.247416
0.261354
0.273391
0.283729
0.292556
0.300045
0.306347
0.311583
0.315831
0.319134
0.321517
0.323023
0.323744
0.323955
0.122976
0.147997
0.170598
0.190878
0.20881
0.224571
0.238355
0.250344
0.26072
0.269653
0.277295
0.283778
0.289202
0.293624
0.297065
0.299535
0.301068
0.301762
0.301915
0.105712
0.129469
0.151045
0.170523
0.187853
0.203179
0.216667
0.228479
0.238774
0.247703
0.255399
0.261975
0.267507
0.272034
0.275559
0.278077
0.279614
0.280275
0.280375
0.0903743
0.112791
0.133239
0.151797
0.1684
0.183166
0.196239
0.20776
0.217868
0.226695
0.234353
0.240935
0.246498
0.251064
0.25462
0.257149
0.25867
0.259294
0.259344
0.076784
0.0977992
0.117038
0.134579
0.150352
0.164455
0.177013
0.188146
0.197974
0.206607
0.214141
0.220647
0.226168
0.230708
0.234243
0.236747
0.238233
0.238815
0.238822
0.0647808
0.0843455
0.10231
0.118757
0.133618
0.146974
0.158931
0.16959
0.179052
0.187408
0.194735
0.201089
0.206496
0.21095
0.214416
0.21686
0.218293
0.21883
0.218799
0.0542163
0.0722928
0.0889325
0.104226
0.11811
0.130648
0.14193
0.152039
0.161058
0.169058
0.176102
0.18223
0.187457
0.191767
0.195117
0.19747
0.198834
0.199324
0.19926
0.0449557
0.0615175
0.0767964
0.0908916
0.103744
0.115405
0.125947
0.135437
0.143939
0.151511
0.158199
0.164032
0.169016
0.173128
0.176321
0.178555
0.179835
0.180276
0.180186
0.0368812
0.0519112
0.0658029
0.0786635
0.0904396
0.101171
0.110913
0.119719
0.127637
0.134711
0.140976
0.14645
0.151133
0.154997
0.157994
0.160084
0.161269
0.161659
0.161548
0.0298948
0.0433807
0.0558641
0.0674591
0.0781185
0.0878703
0.0967576
0.104818
0.112087
0.118598
0.124376
0.129432
0.133761
0.137332
0.1401
0.142023
0.143102
0.143442
0.143316
0.0239141
0.0358426
0.0468974
0.0571969
0.0667
0.0754249
0.0834024
0.0906586
0.0972187
0.103106
0.108338
0.112922
0.116849
0.120089
0.122597
0.124335
0.125302
0.125592
0.125457
0.018863
0.0292156
0.0388186
0.0477913
0.0560981
0.063749
0.0707645
0.0771612
0.0829558
0.0881641
0.0927984
0.0968623
0.100346
0.10322
0.105444
0.106981
0.10783
0.108073
0.107934
0.0146607
0.0234106
0.0315348
0.0391478
0.0462186
0.0527502
0.0587547
0.0642413
0.0692198
0.0737005
0.0776913
0.0811939
0.0841976
0.0866775
0.0885968
0.0899223
0.0906492
0.090848
0.0907109
0.0112103
0.0183231
0.0249396
0.0311611
0.0369587
0.0423298
0.0472797
0.0518118
0.0559306
0.0596423
0.0629514
0.0658582
0.0683532
0.0704153
0.0720138
0.073119
0.0737229
0.0738803
0.073751
0.00838717
0.0138256
0.0189068
0.0237089
0.0282015
0.0323774
0.0362365
0.0397775
0.0430012
0.0459101
0.0485069
0.0507906
0.052754
0.0543811
0.0556481
0.0565302
0.0570142
0.057135
0.0570191
0.00599207
0.00970989
0.0132296
0.0165899
0.0197544
0.0227107
0.0254538
0.0279787
0.0302832
0.0323673
0.0342318
0.0358761
0.037296
0.0384824
0.0394209
0.0400925
0.0404761
0.040577
0.0404834
0.00378286
0.00574889
0.00768257
0.00958707
0.0114119
0.0131381
0.0147551
0.0162544
0.017631
0.018883
0.0200099
0.0210119
0.0218888
0.0226391
0.0232593
0.0237382
0.0240492
0.0241638
0.0241198
0.00121249
0.00164733
0.0021489
0.00270494
0.00327245
0.0038315
0.00437071
0.00488188
0.00535982
0.00580162
0.00620581
0.00657167
0.00689868
0.00718653
0.00743486
0.0076413
0.00779584
0.00787984
0.0078914
)
;

boundaryField
{
    leftWall
    {
        type            fixedFluxPressure;
        gradient        uniform 0;
        value           nonuniform List<scalar> 
50
(
1794.26
1792.77
1791.74
1791.05
1790.75
1791.01
1791.97
1793.72
1797.92
1807.74
1822.02
1841.09
1865.24
1894.62
1929.26
1969.06
2013.83
2063.17
2116.55
2173.91
2234.61
2293.96
2347.22
2168.7
609.433
-1.52853
-1.20044
-1.07778
-0.974685
-0.884995
-0.806277
-0.732512
-0.664344
-0.602149
-0.545458
-0.4939
-0.446864
-0.403526
-0.363111
-0.325177
-0.289601
-0.25632
-0.22515
-0.195814
-0.167879
-0.1408
-0.115216
-0.0926979
-0.0688499
-0.0325981
)
;
    }
    rightWall
    {
        type            fixedFluxPressure;
        gradient        uniform 0;
        value           nonuniform List<scalar> 
50
(
0.80724
0.80749
0.80746
0.807137
0.806507
0.805525
0.804152
0.802359
0.798889
0.792307
0.783769
0.77329
0.760937
0.746812
0.731032
0.713729
0.695042
0.675119
0.654108
0.632164
0.60944
0.586089
0.562258
0.538092
0.513725
0.489281
0.464875
0.440611
0.416586
0.39284
0.369454
0.346479
0.323955
0.301915
0.280375
0.259344
0.238822
0.218799
0.19926
0.180186
0.161548
0.143316
0.125457
0.107934
0.0907109
0.073751
0.0570191
0.0404834
0.0241198
0.0078914
)
;
    }
    lowerWall
    {
        type            fixedFluxPressure;
        gradient        uniform 0;
        value           nonuniform List<scalar> 
62
(
1794.26
1798.73
1795.87
1783.49
1759.94
1724.49
1676.81
1616.33
1541.91
1451.53
1341.29
1205.4
1037.05
831.001
594.648
365.97
199.319
108.636
62.2399
21.8204
9.25163
8.43929
9.78032
9.78032
8.39043
6.72909
5.37608
4.4364
3.77027
3.2078
2.64684
0.456388
0.498731
0.719764
0.827525
0.949872
0.947129
0.942678
0.936367
0.928189
0.916359
0.894771
0.867741
0.949872
0.966389
0.973183
0.969605
0.958831
0.944013
0.927146
0.909492
0.891998
0.875329
0.859976
0.846252
0.834372
0.824453
0.816654
0.811095
0.807812
0.806686
0.80724
)
;
    }
    atmosphere
    {
        type            totalPressure;
        rho             rho;
        psi             none;
        gamma           1;
        p0              uniform 0;
        value           nonuniform List<scalar> 
46
(
-0.0194158
-0.0282491
-0.0243823
-0.0219765
-0.0199691
-0.0181056
-0.0162811
-0.0144529
-0.0126176
-0.0107968
-0.00902517
-0.00734166
-0.00578336
-0.00438187
-0.00316112
-0.00213669
-0.00131656
-0.000702557
-0.000290486
-6.51153e-05
0
0
0
0
0
0
0
0
0
0
0
0
0
0
0
0
0
0
0
0
0
0
0
0
0
0
)
;
    }
    defaultFaces
    {
        type            empty;
    }
}


// ************************************************************************* //
