/*--------------------------------*- C++ -*----------------------------------*\
| =========                 |                                                 |
| \\      /  F ield         | OpenFOAM: The Open Source CFD Toolbox           |
|  \\    /   O peration     | Version:  v2012                                 |
|   \\  /    A nd           | Website:  www.openfoam.com                      |
|    \\/     M anipulation  |                                                 |
\*---------------------------------------------------------------------------*/
FoamFile
{
    version     2.0;
    format      ascii;
    class       surfaceScalarField;
    location    "0.1";
    object      phi;
}
// * * * * * * * * * * * * * * * * * * * * * * * * * * * * * * * * * * * * * //

dimensions      [0 3 -1 0 0 0 0];
oriented        oriented;


internalField   nonuniform List<scalar> 
4432
(
1.89416e-06
-1.89416e-06
6.4746e-06
-4.58046e-06
1.21842e-05
-5.70962e-06
1.82676e-05
-6.08341e-06
2.44897e-05
-6.22207e-06
3.08156e-05
-6.32592e-06
3.73165e-05
-6.50089e-06
4.41512e-05
-6.83463e-06
5.1543e-05
-7.39182e-06
5.97951e-05
-8.25206e-06
6.93705e-05
-9.5754e-06
8.07017e-05
-1.13312e-05
9.37204e-05
-1.30187e-05
0.000106684
-1.29634e-05
0.000115677
-8.99322e-06
0.000118225
-2.54771e-06
0.000117049
1.17584e-06
0.000117114
-6.47435e-08
0.000120249
-3.13583e-06
0.000120074
1.75305e-07
0.000106351
1.37234e-05
7.28276e-05
3.35229e-05
7.28276e-05
3.33072e-06
-5.22486e-06
8.07702e-06
-9.32676e-06
1.32622e-05
-1.08948e-05
1.87217e-05
-1.15429e-05
2.4376e-05
-1.18763e-05
3.0219e-05
-1.2169e-05
3.6316e-05
-1.25979e-05
4.2796e-05
-1.33146e-05
4.98471e-05
-1.4443e-05
5.77288e-05
-1.61338e-05
6.67108e-05
-1.85574e-05
7.69807e-05
-2.16011e-05
8.83887e-05
-2.44267e-05
9.9826e-05
-2.44008e-05
0.000108967
-1.81339e-05
0.00011407
-7.65096e-06
0.000115945
-6.9877e-07
0.000115943
-6.30555e-08
0.000116454
-3.64655e-06
0.000120786
-4.15715e-06
0.000119667
1.48429e-05
8.52518e-05
6.79379e-05
0.00015808
4.32171e-06
-9.54657e-06
9.08602e-06
-1.40911e-05
1.38907e-05
-1.56995e-05
1.88656e-05
-1.65177e-05
2.40436e-05
-1.70544e-05
2.94562e-05
-1.75815e-05
3.51704e-05
-1.83122e-05
4.12952e-05
-1.94394e-05
4.79856e-05
-2.11334e-05
5.54293e-05
-2.35774e-05
6.37835e-05
-2.69116e-05
7.30985e-05
-3.09161e-05
8.31734e-05
-3.45016e-05
9.33202e-05
-3.45475e-05
0.000102281
-2.70944e-05
0.000108826
-1.41963e-05
0.000112474
-4.34693e-06
0.000112174
2.37238e-07
0.000108734
-2.06376e-07
0.000102503
2.07372e-06
9.1764e-05
2.55816e-05
6.15064e-05
9.81957e-05
0.000219586
4.84139e-06
-1.4388e-05
9.67789e-06
-1.89276e-05
1.42725e-05
-2.02941e-05
1.89199e-05
-2.11652e-05
2.37432e-05
-2.18776e-05
2.88113e-05
-2.26497e-05
3.41988e-05
-2.36996e-05
4.00006e-05
-2.52412e-05
4.63382e-05
-2.7471e-05
5.33361e-05
-3.05753e-05
6.10681e-05
-3.46436e-05
6.95031e-05
-3.93511e-05
7.84334e-05
-4.34319e-05
8.74986e-05
-4.36126e-05
9.61785e-05
-3.57743e-05
0.000103427
-2.14452e-05
0.000107084
-8.00371e-06
0.000106495
8.26245e-07
0.000101224
5.06487e-06
8.90733e-05
1.42244e-05
6.81604e-05
4.64945e-05
3.79363e-05
0.00012842
0.000257522
5.04686e-06
-1.94348e-05
9.97102e-06
-2.38517e-05
1.44865e-05
-2.48096e-05
1.89435e-05
-2.56222e-05
2.35251e-05
-2.64592e-05
2.83341e-05
-2.74587e-05
3.34548e-05
-2.88203e-05
3.89733e-05
-3.07597e-05
4.4981e-05
-3.34787e-05
5.15509e-05
-3.71452e-05
5.8693e-05
-4.17858e-05
6.63162e-05
-4.69742e-05
7.42006e-05
-5.13163e-05
8.22219e-05
-5.16339e-05
9.0424e-05
-4.39765e-05
9.7951e-05
-2.89722e-05
0.000100745
-1.07976e-05
0.000100104
1.46716e-06
9.22624e-05
1.29066e-05
7.50059e-05
3.14806e-05
4.87686e-05
7.27319e-05
2.05025e-05
0.000156686
0.000278025
5.09547e-06
-2.45303e-05
1.01002e-05
-2.88565e-05
1.46208e-05
-2.93301e-05
1.89934e-05
-2.99948e-05
2.34309e-05
-3.08967e-05
2.80612e-05
-3.2089e-05
3.29783e-05
-3.37374e-05
3.82622e-05
-3.60436e-05
4.39806e-05
-3.91971e-05
5.01659e-05
-4.33306e-05
5.67792e-05
-4.83991e-05
6.36789e-05
-5.38738e-05
7.06093e-05
-5.82468e-05
7.75387e-05
-5.85633e-05
8.48326e-05
-5.12704e-05
9.19199e-05
-3.60595e-05
9.52981e-05
-1.41759e-05
9.38274e-05
2.93791e-06
8.3134e-05
2.36e-05
6.21249e-05
5.24897e-05
3.48383e-05
0.000100019
1.18531e-05
0.000179671
0.000289878
5.1031e-06
-2.96334e-05
1.01751e-05
-3.39285e-05
1.47498e-05
-3.39048e-05
1.91156e-05
-3.43606e-05
2.34895e-05
-3.52706e-05
2.80136e-05
-3.66131e-05
3.27892e-05
-3.85129e-05
3.78921e-05
-4.11466e-05
4.33723e-05
-4.46773e-05
4.92332e-05
-4.91914e-05
5.54011e-05
-5.4567e-05
6.1695e-05
-6.01677e-05
6.78039e-05
-6.43558e-05
7.36803e-05
-6.44396e-05
7.98046e-05
-5.73947e-05
8.58918e-05
-4.21467e-05
9.01389e-05
-1.8423e-05
8.73834e-05
5.69336e-06
7.43668e-05
3.66166e-05
5.25629e-05
7.42936e-05
2.87551e-05
0.000123826
1.27702e-05
0.000195656
0.000302648
5.1156e-06
-3.4749e-05
1.02435e-05
-3.90564e-05
1.48954e-05
-3.85566e-05
1.93048e-05
-3.877e-05
2.36751e-05
-3.96409e-05
2.81518e-05
-4.10898e-05
3.28393e-05
-4.32005e-05
3.78104e-05
-4.61177e-05
4.3103e-05
-4.99698e-05
4.87026e-05
-5.4791e-05
5.45179e-05
-6.03823e-05
6.03401e-05
-6.59899e-05
6.58098e-05
-6.98254e-05
7.08879e-05
-6.95177e-05
7.60243e-05
-6.25311e-05
8.11112e-05
-4.72337e-05
8.51454e-05
-2.24571e-05
8.10406e-05
9.79824e-06
6.71087e-05
5.05484e-05
4.75047e-05
9.38975e-05
2.98204e-05
0.000141511
1.92354e-05
0.000206241
0.000321883
1.20495e-06
-1.20495e-06
5.66416e-06
-4.4593e-06
9.98126e-06
-4.31729e-06
1.28272e-05
-2.84607e-06
1.43188e-05
-1.49153e-06
1.4784e-05
-4.65278e-07
1.4529e-05
2.54834e-07
1.38178e-05
7.11643e-07
1.28332e-05
9.84588e-07
1.16804e-05
1.15252e-06
1.04275e-05
1.25323e-06
9.11359e-06
1.31382e-06
7.75218e-06
1.36132e-06
6.34018e-06
1.41187e-06
4.87131e-06
1.46914e-06
3.35474e-06
1.51646e-06
1.85691e-06
1.4975e-06
6.2049e-07
1.2371e-06
6.20104e-07
2.00768e-06
-3.21285e-06
6.47932e-06
-8.93108e-06
1.03663e-05
-8.20437e-06
1.28106e-05
-5.29056e-06
1.40312e-05
-2.71217e-06
1.43703e-05
-8.03987e-07
1.41069e-05
5.1795e-07
1.3432e-05
1.38658e-06
1.24878e-05
1.92914e-06
1.13755e-05
2.26453e-06
1.01617e-05
2.46713e-06
8.8851e-06
2.59043e-06
7.56557e-06
2.68099e-06
6.21082e-06
2.76628e-06
4.82829e-06
2.85175e-06
3.43747e-06
2.90788e-06
2.08811e-06
2.84611e-06
8.82784e-07
2.44326e-06
1.50269e-06
2.47807e-06
-5.69111e-06
7.15823e-06
-1.36114e-05
1.07993e-05
-1.18455e-05
1.28499e-05
-7.34127e-06
1.37486e-05
-3.611e-06
1.38777e-05
-9.3282e-07
1.3495e-05
9.00413e-07
1.27723e-05
2.10932e-06
1.18311e-05
2.87067e-06
1.07547e-05
3.34076e-06
9.59746e-06
3.62445e-06
8.39048e-06
3.79737e-06
7.15284e-06
3.91883e-06
5.8964e-06
4.02254e-06
4.6346e-06
4.11342e-06
3.38856e-06
4.15448e-06
2.18887e-06
4.04528e-06
1.05902e-06
3.57363e-06
2.56162e-06
2.6901e-06
-8.38136e-06
7.92053e-06
-1.8842e-05
1.14863e-05
-1.54113e-05
1.31625e-05
-9.01751e-06
1.37129e-05
-4.16161e-06
1.36051e-05
-8.24832e-07
1.3083e-05
1.42247e-06
1.22932e-05
2.89906e-06
1.13348e-05
3.82929e-06
1.02746e-05
4.40091e-06
9.15543e-06
4.74368e-06
8.0023e-06
4.95047e-06
6.83197e-06
5.08934e-06
5.65695e-06
5.19751e-06
4.49121e-06
5.27898e-06
3.35165e-06
5.29449e-06
2.25005e-06
5.14654e-06
1.161e-06
4.66299e-06
3.72259e-06
3.07391e-06
-1.14554e-05
9.09157e-06
-2.48599e-05
1.25453e-05
-1.88651e-05
1.37931e-05
-1.02654e-05
1.39554e-05
-4.324e-06
1.358e-05
-4.49317e-07
1.28933e-05
2.10919e-06
1.20137e-05
3.77858e-06
1.10163e-05
4.8269e-06
9.95131e-06
5.46594e-06
8.85048e-06
5.84457e-06
7.73252e-06
6.06838e-06
6.61067e-06
6.21134e-06
5.49555e-06
6.31266e-06
4.39819e-06
6.37615e-06
3.32854e-06
6.36451e-06
2.28276e-06
6.19211e-06
1.20863e-06
5.73729e-06
4.93123e-06
4.76262e-06
-1.62181e-05
1.12302e-05
-3.13277e-05
1.41248e-05
-2.17597e-05
1.47805e-05
-1.0921e-05
1.44928e-05
-4.03638e-06
1.38145e-05
2.29023e-07
1.29369e-05
2.98693e-06
1.19443e-05
4.77124e-06
1.0886e-05
5.88533e-06
9.79513e-06
6.55684e-06
8.69231e-06
6.94747e-06
7.58945e-06
7.17121e-06
6.49525e-06
7.30564e-06
5.41674e-06
7.39125e-06
4.36004e-06
7.43269e-06
3.32737e-06
7.39746e-06
2.3037e-06
7.21568e-06
1.22667e-06
6.81436e-06
6.15793e-06
9.78161e-06
-2.59997e-05
1.49782e-05
-3.65243e-05
1.63368e-05
-2.31185e-05
1.61423e-05
-1.07265e-05
1.53293e-05
-3.22349e-06
1.43113e-05
1.24704e-06
1.32169e-05
4.08146e-06
1.20884e-05
5.89975e-06
1.09478e-05
7.02602e-06
9.81033e-06
7.69436e-06
8.68515e-06
8.07273e-06
7.57696e-06
8.27939e-06
6.48919e-06
8.39347e-06
5.42421e-06
8.45634e-06
4.38232e-06
8.47447e-06
3.35833e-06
8.42163e-06
2.33026e-06
8.24372e-06
1.23631e-06
7.90828e-06
7.39426e-06
1.87664e-05
-4.47662e-05
2.0428e-05
-3.81862e-05
1.91497e-05
-2.18403e-05
1.78357e-05
-9.41254e-06
1.64285e-05
-1.81635e-06
1.50403e-05
2.63528e-06
1.37081e-05
5.4137e-06
1.24257e-05
7.1822e-06
1.1185e-05
8.26676e-06
9.98297e-06
8.89648e-06
8.81718e-06
9.23858e-06
7.68508e-06
9.41148e-06
6.58456e-06
9.49402e-06
5.51285e-06
9.52818e-06
4.46431e-06
9.52295e-06
3.4272e-06
9.45882e-06
2.37464e-06
9.2963e-06
1.24965e-06
9.03321e-06
8.64391e-06
1.06972e-05
-4.54462e-05
2.1804e-05
-5.01633e-05
3.19338e-05
-4.86864e-05
4.14846e-05
-4.83208e-05
5.08307e-05
-4.8987e-05
6.0262e-05
-5.05211e-05
6.99968e-05
-5.29353e-05
8.01779e-05
-5.62987e-05
9.08595e-05
-6.06514e-05
0.000101979
-6.5911e-05
0.000113316
-7.17184e-05
0.000124469
-7.71436e-05
0.000134935
-8.0291e-05
0.00014447
-7.90533e-05
0.000153469
-7.15296e-05
0.000161826
-5.55907e-05
0.000164737
-2.53682e-05
0.000152185
2.23501e-05
0.000126245
7.64887e-05
9.90919e-05
0.00012105
8.49994e-05
0.000155603
0.00010287
0.000188371
0.000222543
0.000202211
1.04088e-05
-5.58549e-05
2.11007e-05
-6.08552e-05
3.10117e-05
-5.85974e-05
4.03933e-05
-5.77024e-05
4.95011e-05
-5.80948e-05
5.85598e-05
-5.95799e-05
6.77483e-05
-6.21238e-05
7.71804e-05
-6.57308e-05
8.6887e-05
-7.0358e-05
9.67958e-05
-7.58199e-05
0.000106713
-8.16355e-05
0.000116313
-8.67434e-05
0.000125166
-8.91444e-05
0.000133035
-8.69226e-05
0.000139625
-7.81195e-05
0.000144959
-6.09242e-05
0.000140988
-2.13973e-05
0.000125709
3.7629e-05
0.000108087
9.41112e-05
9.76283e-05
0.000131509
0.000101861
0.00015137
0.000128232
0.000162
0.000168538
0.000182236
9.87506e-06
-6.573e-05
1.98377e-05
-7.08179e-05
2.91811e-05
-6.79408e-05
3.80849e-05
-6.66062e-05
4.67096e-05
-6.67195e-05
5.52102e-05
-6.80805e-05
6.37162e-05
-7.06297e-05
7.2307e-05
-7.43217e-05
8.09943e-05
-7.90453e-05
8.9707e-05
-8.45326e-05
9.828e-05
-9.02085e-05
0.000106447
-9.49103e-05
0.000113923
-9.66204e-05
0.000120529
-9.35287e-05
0.000125623
-8.32133e-05
0.0001273
-6.26012e-05
0.000116667
-1.0764e-05
0.000100861
5.34343e-05
8.99726e-05
0.000105
8.74776e-05
0.000134004
9.37395e-05
0.000145108
0.000109666
0.000146073
0.00013772
0.000140485
9.20887e-06
-7.49389e-05
1.8295e-05
-7.9904e-05
2.68918e-05
-7.65376e-05
3.51373e-05
-7.48517e-05
4.31275e-05
-7.47097e-05
5.09617e-05
-7.59147e-05
5.87239e-05
-7.83919e-05
6.64614e-05
-8.20593e-05
7.41697e-05
-8.67536e-05
8.17817e-05
-9.21445e-05
8.91577e-05
-9.75846e-05
9.60841e-05
-0.000101837
0.000102441
-0.000102977
0.000108074
-9.91615e-05
0.000112507
-8.76463e-05
0.00010895
-5.90447e-05
9.43605e-05
3.82554e-06
8.03641e-05
6.74309e-05
7.39928e-05
0.000111371
7.49584e-05
0.000133038
8.13309e-05
0.000138736
9.28174e-05
0.000134587
0.000120992
0.000109545
8.48052e-06
-8.34194e-05
1.66497e-05
-8.80731e-05
2.44323e-05
-8.43202e-05
3.19352e-05
-8.23546e-05
3.92133e-05
-8.19878e-05
4.63267e-05
-8.30281e-05
5.3325e-05
-8.53902e-05
6.02302e-05
-8.89644e-05
6.70256e-05
-9.3549e-05
7.36498e-05
-9.87687e-05
7.99889e-05
-0.000103924
8.58724e-05
-0.00010772
9.12841e-05
-0.000108389
9.59719e-05
-0.000103849
0.000100307
-9.19819e-05
9.1953e-05
-5.06902e-05
7.60415e-05
1.97372e-05
6.46553e-05
7.88172e-05
6.11521e-05
0.000114875
6.35995e-05
0.000130591
6.96039e-05
0.000132732
7.7923e-05
0.000126268
0.000112123
8.6792e-05
7.72267e-06
-9.11421e-05
1.4985e-05
-9.53355e-05
2.19473e-05
-9.12825e-05
2.8685e-05
-8.90923e-05
3.52257e-05
-8.85284e-05
4.16038e-05
-8.94062e-05
4.78452e-05
-9.16316e-05
5.3954e-05
-9.50733e-05
5.99061e-05
-9.9501e-05
6.56463e-05
-0.000104509
7.10853e-05
-0.000109363
7.60922e-05
-0.000112727
8.06599e-05
-0.000112957
8.44978e-05
-0.000107687
8.82922e-05
-9.57762e-05
7.63469e-05
-3.8745e-05
6.10825e-05
3.50017e-05
5.23191e-05
8.75806e-05
5.06303e-05
0.000116564
5.3558e-05
0.000127664
5.88241e-05
0.000127466
6.50479e-05
0.000120044
0.000106275
7.08962e-05
6.95411e-06
-9.80962e-05
1.3341e-05
-0.000101722
1.9505e-05
-9.74465e-05
2.54879e-05
-9.50752e-05
3.12974e-05
-9.4338e-05
3.69511e-05
-9.50598e-05
4.2459e-05
-9.71395e-05
4.78142e-05
-0.000100428
5.29888e-05
-0.000104676
5.79339e-05
-0.000109454
6.25783e-05
-0.000114007
6.68189e-05
-0.000116968
7.0649e-05
-0.000116787
7.37499e-05
-0.000110788
7.6003e-05
-9.80293e-05
6.15128e-05
-2.42548e-05
4.82184e-05
4.82961e-05
4.19123e-05
9.38868e-05
4.15375e-05
0.000116938
4.46313e-05
0.00012457
4.92837e-05
0.000122813
5.43493e-05
0.000114978
0.000101761
5.88632e-05
6.18797e-06
-0.000104284
1.174e-05
-0.000107274
1.71388e-05
-0.000102845
2.23921e-05
-0.000100329
2.74925e-05
-9.94384e-05
3.24458e-05
-0.000100013
3.72518e-05
-0.000101946
4.18977e-05
-0.000105074
4.63558e-05
-0.000109134
5.05848e-05
-0.000113683
5.45302e-05
-0.000117953
5.8114e-05
-0.000120551
6.13202e-05
-0.000119993
6.37979e-05
-0.000113266
6.2897e-05
-9.71284e-05
4.71789e-05
-8.53655e-06
3.66092e-05
5.88658e-05
3.26389e-05
9.78572e-05
3.33562e-05
0.000116221
3.65658e-05
0.00012136
4.07832e-05
0.000118596
4.51274e-05
0.000110634
9.80335e-05
4.88548e-05
5.43533e-06
-0.000109719
1.01963e-05
-0.000112035
1.48665e-05
-0.000107516
1.94214e-05
-0.000104883
2.38414e-05
-0.000103858
2.81236e-05
-0.000104295
3.22618e-05
-0.000106084
3.62409e-05
-0.000109053
4.0037e-05
-0.00011293
4.36196e-05
-0.000117266
4.69506e-05
-0.000121284
4.99702e-05
-0.000123571
5.2629e-05
-0.000122652
5.46674e-05
-0.000115304
4.78693e-05
-9.03303e-05
3.34647e-05
5.86796e-06
2.60483e-05
6.62821e-05
2.42353e-05
9.96701e-05
2.58456e-05
0.000114611
2.91273e-05
0.000118078
3.30111e-05
0.000114712
3.68504e-05
0.000106795
9.48079e-05
4.00759e-05
4.70406e-06
-0.000114424
8.71909e-06
-0.00011605
1.26989e-05
-0.000111495
1.65892e-05
-0.000108774
2.03602e-05
-0.000107629
2.40026e-05
-0.000107938
2.75063e-05
-0.000109587
3.0857e-05
-0.000112404
3.4038e-05
-0.000116111
3.70333e-05
-0.000120261
3.98247e-05
-0.000124075
4.23655e-05
-0.000126112
4.45443e-05
-0.00012483
4.63995e-05
-0.000117159
3.24379e-05
-7.63688e-05
2.14447e-05
1.6861e-05
1.70052e-05
7.07215e-05
1.68176e-05
9.98577e-05
1.89668e-05
0.000112462
2.21961e-05
0.000114849
2.57753e-05
0.000111132
2.92351e-05
0.000103335
9.19131e-05
3.21298e-05
4.00104e-06
-0.000118425
7.3184e-06
-0.000119368
1.06463e-05
-0.000114823
1.39073e-05
-0.000112035
1.70633e-05
-0.000110785
2.00988e-05
-0.000110973
2.30011e-05
-0.00011249
2.57577e-05
-0.000115161
2.83612e-05
-0.000118714
3.08143e-05
-0.000122714
3.31274e-05
-0.000126388
3.5276e-05
-0.00012826
3.70406e-05
-0.000126595
3.88684e-05
-0.000118987
2.08761e-05
-5.83765e-05
1.28293e-05
2.49076e-05
1.01238e-05
7.34269e-05
1.05609e-05
9.94204e-05
1.27172e-05
0.000110305
1.56981e-05
0.000111868
1.8958e-05
0.000107873
2.21164e-05
0.000100176
8.92366e-05
2.47928e-05
3.33215e-06
-0.000121757
6.00057e-06
-0.000122036
8.71735e-06
-0.00011754
1.13895e-05
-0.000114707
1.397e-05
-0.000113366
1.64374e-05
-0.000113441
1.87764e-05
-0.000114829
2.09748e-05
-0.000117359
2.30317e-05
-0.000120771
2.4969e-05
-0.000124651
2.68377e-05
-0.000128257
2.86694e-05
-0.000130092
3.01444e-05
-0.00012807
3.1805e-05
-0.000120648
1.51838e-05
-4.17553e-05
7.9636e-06
3.21277e-05
5.19821e-06
7.61922e-05
5.21338e-06
9.94051e-05
6.90286e-06
0.000108616
9.48501e-06
0.000109285
1.24325e-05
0.000104925
1.53671e-05
9.72417e-05
8.66824e-05
1.79214e-05
2.62863e-06
-0.000124385
4.6971e-06
-0.000124105
6.87535e-06
-0.000119718
9.03173e-06
-0.000116863
1.11045e-05
-0.000115439
1.30666e-05
-0.000115403
1.49004e-05
-0.000116662
1.65921e-05
-0.000119051
1.81409e-05
-0.00012232
1.95771e-05
-0.000126087
2.09928e-05
-0.000129673
2.25213e-05
-0.00013162
2.38597e-05
-0.000129408
2.54652e-05
-0.000122253
1.25949e-05
-2.88851e-05
4.72538e-06
3.99971e-05
8.6369e-07
8.00538e-05
-9.20977e-09
0.000100278
1.08669e-06
0.00010752
3.30368e-06
0.000107068
6.03922e-06
0.00010219
8.86864e-06
9.44123e-05
8.41418e-05
1.14092e-05
1.669e-06
-0.000126054
3.26003e-06
-0.000125696
5.05653e-06
-0.000121515
6.82668e-06
-0.000118633
8.50493e-06
-0.000117117
1.00676e-05
-0.000116965
1.14981e-05
-0.000118093
1.27785e-05
-0.000120331
1.3899e-05
-0.000123441
1.48824e-05
-0.000127071
1.58312e-05
-0.000130621
1.69543e-05
-0.000132744
1.81953e-05
-0.000130649
2.01345e-05
-0.000124193
9.19673e-06
-1.79475e-05
4.74512e-07
4.87193e-05
-4.45136e-06
8.49796e-05
-5.98866e-06
0.000101815
-5.21635e-06
0.000106748
-3.11619e-06
0.000104968
-3.79866e-07
9.94532e-05
2.5171e-06
9.15153e-05
8.1485e-05
5.1738e-06
4.79756e-07
-0.000126534
1.78422e-06
-0.000127
3.3301e-06
-0.000123061
4.85092e-06
-0.000120154
6.28044e-06
-0.000118546
7.59995e-06
-0.000118285
8.79121e-06
-0.000119284
9.82884e-06
-0.000121369
1.06901e-05
-0.000124302
1.13837e-05
-0.000127764
1.20132e-05
-0.000131251
1.27615e-05
-0.000133492
1.35588e-05
-0.000131447
1.47663e-05
-0.0001254
3.04521e-06
-6.22637e-06
-6.59477e-06
5.83593e-05
-1.18995e-05
9.02844e-05
-1.33902e-05
0.000103306
-1.23702e-05
0.000105728
-9.96729e-06
0.000102565
-6.93048e-06
9.64164e-05
-3.75367e-06
8.83384e-05
7.85662e-05
-8.34926e-07
8.77883e-07
-0.000127412
9.98542e-07
-0.000127121
1.98989e-06
-0.000124052
3.28508e-06
-0.000121449
4.62666e-06
-0.000119888
5.92549e-06
-0.000119584
7.12211e-06
-0.000120481
8.16607e-06
-0.000122413
9.0158e-06
-0.000125152
9.65136e-06
-0.0001284
1.02538e-05
-0.000131853
1.1396e-05
-0.000134634
1.13802e-05
-0.000131431
5.67575e-06
-0.000119696
-8.97557e-06
8.42502e-06
-1.82925e-05
6.76763e-05
-2.24127e-05
9.44046e-05
-2.26407e-05
0.000103534
-2.056e-05
0.000103647
-1.73161e-05
9.93216e-05
-1.36255e-05
9.27258e-05
-9.93883e-06
8.46518e-05
7.52405e-05
-6.61306e-06
6.59489e-06
-0.000134007
8.45451e-07
-0.000121371
9.50243e-07
-0.000124157
2.08376e-06
-0.000122583
3.60131e-06
-0.000121405
5.19758e-06
-0.00012118
6.71707e-06
-0.000122
8.06972e-06
-0.000123765
9.17089e-06
-0.000126253
9.90024e-06
-0.000129129
1.00505e-05
-0.000132003
1.11231e-05
-0.000135707
1.06069e-05
-0.000130915
-1.48343e-05
-9.42544e-05
-2.93247e-05
2.29154e-05
-3.56114e-05
7.3963e-05
-3.62177e-05
9.5011e-05
-3.36941e-05
0.00010101
-2.96518e-05
9.96046e-05
-2.50229e-05
9.46926e-05
-2.03484e-05
8.80513e-05
-1.59523e-05
8.02558e-05
7.1391e-05
-1.21028e-05
2.38921e-05
-0.000157899
1.8234e-06
-9.93024e-05
-1.91854e-07
-0.000122142
8.48401e-07
-0.000123623
3.04143e-06
-0.000123599
5.45325e-06
-0.000123592
7.72762e-06
-0.000124275
9.69244e-06
-0.00012573
1.12659e-05
-0.000127826
1.22039e-05
-0.000130067
1.06386e-05
-0.000130438
1.88423e-06
-0.000126952
-1.15465e-05
-0.000117484
-4.87838e-05
-5.7017e-05
-5.74597e-05
3.15914e-05
-5.6834e-05
7.33374e-05
-5.19932e-05
9.01702e-05
-4.56606e-05
9.46779e-05
-3.90388e-05
9.29828e-05
-3.26782e-05
8.8332e-05
-2.68259e-05
8.2199e-05
-2.16153e-05
7.50452e-05
6.69662e-05
-1.71905e-05
-2.52097e-06
-0.000155378
5.16052e-06
-0.000106984
1.53349e-06
-0.000118514
2.67792e-07
-0.000122358
-1.65365e-07
-0.000123165
-3.56208e-07
-0.000123401
-8.83297e-07
-0.000123747
-2.24555e-06
-0.000124368
-5.05144e-06
-0.00012502
-1.02929e-05
-0.000124826
-1.90304e-05
-0.000121701
-3.37565e-05
-0.000112226
-6.19949e-05
-8.92453e-05
-8.8659e-05
-3.03529e-05
-8.67796e-05
2.97121e-05
-7.74155e-05
6.39733e-05
-6.68927e-05
7.96475e-05
-5.67937e-05
8.45789e-05
-4.76711e-05
8.38602e-05
-3.96399e-05
8.03009e-05
-3.26608e-05
7.52199e-05
-2.6682e-05
6.90665e-05
6.20091e-05
-2.17251e-05
-1.45929e-05
-0.000140785
-2.89941e-06
-0.000118678
-3.09609e-06
-0.000118318
-6.73473e-06
-0.000118719
-1.11244e-05
-0.000118776
-1.57887e-05
-0.000118737
-2.08347e-05
-0.000118702
-2.66567e-05
-0.000118546
-3.39184e-05
-0.000117759
-4.36185e-05
-0.000115126
-5.70849e-05
-0.000108234
-7.5887e-05
-9.34241e-05
-9.99147e-05
-6.52177e-05
-0.000109905
-2.03624e-05
-0.000103326
2.31331e-05
-9.07689e-05
5.14164e-05
-7.74153e-05
6.62939e-05
-6.51264e-05
7.229e-05
-5.44e-05
7.31337e-05
-4.52247e-05
7.11256e-05
-3.74408e-05
6.7436e-05
-3.09013e-05
6.25269e-05
5.66591e-05
-2.55513e-05
-1.00465e-05
-0.000130739
-7.686e-06
-0.000121038
-1.00066e-05
-0.000115997
-1.50606e-05
-0.000113665
-2.12938e-05
-0.000112542
-2.81831e-05
-0.000111847
-3.57247e-05
-0.00011116
-4.42259e-05
-0.000110045
-5.42304e-05
-0.000107754
-6.63915e-05
-0.000102965
-8.10436e-05
-9.35819e-05
-9.7517e-05
-7.69505e-05
-0.000112
-5.07345e-05
-0.000115791
-1.65719e-05
-0.000108484
1.58264e-05
-9.60207e-05
3.8953e-05
-8.24789e-05
5.2752e-05
-6.97867e-05
5.95977e-05
-5.86042e-05
6.19512e-05
-4.90145e-05
6.15359e-05
-4.0893e-05
5.93145e-05
-3.40978e-05
5.57316e-05
5.11178e-05
-2.85564e-05
-7.14354e-06
-0.000123595
-1.12935e-05
-0.000116888
-1.60246e-05
-0.000111266
-2.19351e-05
-0.000107754
-2.8836e-05
-0.000105641
-3.65461e-05
-0.000104137
-4.50885e-05
-0.000102618
-5.46577e-05
-0.000100476
-6.55227e-05
-9.68894e-05
-7.78095e-05
-9.06777e-05
-9.10674e-05
-8.03238e-05
-0.000103717
-6.43013e-05
-0.000112409
-4.20423e-05
-0.000113213
-1.57679e-05
-0.000106339
8.9531e-06
-9.5273e-05
2.78866e-05
-8.2943e-05
4.0422e-05
-7.10441e-05
4.76987e-05
-6.03151e-05
5.12223e-05
-5.09615e-05
5.21824e-05
-4.29559e-05
5.13089e-05
-3.62177e-05
4.89934e-05
4.55986e-05
-3.06985e-05
-8.14663e-06
-0.000115449
-1.40828e-05
-0.000110952
-1.99062e-05
-0.000105443
-2.62168e-05
-0.000101444
-3.3233e-05
-9.86251e-05
-4.10073e-05
-9.63632e-05
-4.9594e-05
-9.40309e-05
-5.90768e-05
-9.09927e-05
-6.94748e-05
-8.64913e-05
-8.05491e-05
-7.96033e-05
-9.15312e-05
-6.93417e-05
-0.000100859
-5.49731e-05
-0.000106253
-3.66487e-05
-0.000105815
-1.62061e-05
-9.99312e-05
3.06964e-06
-9.07005e-05
1.86559e-05
-8.01584e-05
2.98798e-05
-6.96703e-05
3.72106e-05
-5.99503e-05
4.15023e-05
-5.12848e-05
4.35169e-05
-4.37425e-05
4.37665e-05
-3.73187e-05
4.25695e-05
4.0286e-05
-3.20061e-05
-8.24305e-06
-0.000107206
-1.51605e-05
-0.000104035
-2.15223e-05
-9.90809e-05
-2.79866e-05
-9.49794e-05
-3.48768e-05
-9.1735e-05
-4.23454e-05
-8.88946e-05
-5.0458e-05
-8.59183e-05
-5.92169e-05
-8.22337e-05
-6.84904e-05
-7.72176e-05
-7.78884e-05
-7.02052e-05
-8.66246e-05
-6.06054e-05
-9.34694e-05
-4.81283e-05
-9.69712e-05
-3.31467e-05
-9.6178e-05
-1.69992e-05
-9.14326e-05
-1.67579e-06
-8.4039e-05
1.12623e-05
-7.53852e-05
2.1226e-05
-6.65139e-05
2.83394e-05
-5.80546e-05
3.30429e-05
-5.0325e-05
3.57872e-05
-4.34631e-05
3.69046e-05
-3.75297e-05
3.66361e-05
3.53154e-05
-3.25591e-05
-7.89577e-06
-9.93101e-05
-1.49958e-05
-9.69344e-05
-2.15265e-05
-9.25501e-05
-2.7943e-05
-8.85628e-05
-3.45583e-05
-8.51198e-05
-4.15372e-05
-8.19156e-05
-4.89356e-05
-7.85198e-05
-5.67086e-05
-7.44605e-05
-6.46662e-05
-6.926e-05
-7.24037e-05
-6.24677e-05
-7.92571e-05
-5.3752e-05
-8.43375e-05
-4.30477e-05
-8.6743e-05
-3.07412e-05
-8.59777e-05
-1.77645e-05
-8.23003e-05
-5.35329e-06
-7.65325e-05
5.49443e-06
-6.96117e-05
1.43053e-05
-6.23091e-05
2.10369e-05
-5.51475e-05
2.58812e-05
-4.84383e-05
2.9078e-05
-4.23573e-05
3.08235e-05
-3.70104e-05
3.12891e-05
3.07695e-05
-3.24645e-05
-7.37735e-06
-9.19324e-05
-1.42311e-05
-9.00806e-05
-2.06102e-05
-8.6171e-05
-2.67927e-05
-8.23804e-05
-3.30178e-05
-7.88947e-05
-3.94182e-05
-7.55152e-05
-4.60283e-05
-7.19096e-05
-5.27803e-05
-6.77085e-05
-5.948e-05
-6.25603e-05
-6.57749e-05
-5.61727e-05
-7.11529e-05
-4.83739e-05
-7.50002e-05
-3.92003e-05
-7.6758e-05
-2.89834e-05
-7.61596e-05
-1.8363e-05
-7.33858e-05
-8.12714e-06
-6.89608e-05
1.06947e-06
-6.35135e-05
8.85802e-06
-5.76044e-05
1.51276e-05
-5.16513e-05
1.9928e-05
-4.59377e-05
2.33643e-05
-4.0651e-05
2.55369e-05
-3.59218e-05
2.65599e-05
2.66852e-05
-3.18376e-05
-6.75226e-06
-8.51801e-05
-1.31734e-05
-8.36597e-05
-1.92154e-05
-8.0129e-05
-2.50387e-05
-7.65571e-05
-3.08022e-05
-7.31312e-05
-3.65967e-05
-6.97206e-05
-4.24352e-05
-6.6071e-05
-4.8243e-05
-6.19006e-05
-5.38469e-05
-5.69564e-05
-5.89655e-05
-5.1054e-05
-6.32238e-05
-4.41154e-05
-6.62081e-05
-3.62161e-05
-6.7571e-05
-2.76205e-05
-6.71645e-05
-1.87696e-05
-6.51119e-05
-1.01797e-05
-6.17496e-05
-2.29279e-06
-5.74998e-05
4.60819e-06
-5.27652e-05
1.03929e-05
-4.78729e-05
1.50357e-05
-4.30686e-05
1.85599e-05
-3.85342e-05
2.10026e-05
-3.44085e-05
2.24342e-05
2.3065e-05
-3.07884e-05
-6.10555e-06
-7.90747e-05
-1.20118e-05
-7.77534e-05
-1.76166e-05
-7.45243e-05
-2.30071e-05
-7.11665e-05
-2.82753e-05
-6.78629e-05
-3.3475e-05
-6.45208e-05
-3.86015e-05
-6.09445e-05
-4.35828e-05
-5.69194e-05
-4.82748e-05
-5.22643e-05
-5.24634e-05
-4.68652e-05
-5.58824e-05
-4.06965e-05
-5.82559e-05
-3.38426e-05
-5.93672e-05
-2.65093e-05
-5.9132e-05
-1.90048e-05
-5.76337e-05
-1.1678e-05
-5.50906e-05
-4.83591e-06
-5.17871e-05
1.30463e-06
-4.80114e-05
6.61708e-06
-4.40163e-05
1.10406e-05
-4.00085e-05
1.45521e-05
-3.61549e-05
1.7149e-05
-3.2591e-05
1.88702e-05
1.9889e-05
-2.9415e-05
-5.47581e-06
-7.3599e-05
-1.08417e-05
-7.23876e-05
-1.59686e-05
-6.93974e-05
-2.08928e-05
-6.62422e-05
-2.56604e-05
-6.30953e-05
-3.02967e-05
-5.98845e-05
-3.47854e-05
-5.64557e-05
-3.90616e-05
-5.26431e-05
-4.30102e-05
-4.83157e-05
-4.64725e-05
-4.34029e-05
-4.92621e-05
-3.79069e-05
-5.11962e-05
-3.19085e-05
-5.21383e-05
-2.55672e-05
-5.20398e-05
-1.91033e-05
-5.09575e-05
-1.27602e-05
-4.90356e-05
-6.75789e-06
-4.64673e-05
-1.26378e-06
-4.34591e-05
3.60889e-06
-4.02056e-05
7.7871e-06
-3.68775e-05
1.1224e-05
-3.3622e-05
1.38935e-05
-3.05647e-05
1.5813e-05
1.7124e-05
-2.77998e-05
-4.87978e-06
-6.87192e-05
-9.71083e-06
-6.75566e-05
-1.43534e-05
-6.47548e-05
-1.88057e-05
-6.17898e-05
-2.30856e-05
-5.88154e-05
-2.7199e-05
-5.57711e-05
-3.11239e-05
-5.25307e-05
-3.48038e-05
-4.89631e-05
-3.81489e-05
-4.49706e-05
-4.10426e-05
-4.05093e-05
-4.33552e-05
-3.55943e-05
-4.49653e-05
-3.02985e-05
-4.57861e-05
-2.47463e-05
-4.57894e-05
-1.91e-05
-4.50149e-05
-1.35349e-05
-4.35597e-05
-8.21311e-06
-4.15577e-05
-3.26589e-06
-3.91579e-05
1.20909e-06
-3.65095e-05
5.1387e-06
-3.37519e-05
8.46637e-06
-3.10121e-05
1.11537e-05
-2.84026e-05
1.32035e-05
1.47313e-05
-2.601e-05
-4.33019e-06
-6.4389e-05
-8.64953e-06
-6.32371e-05
-1.2817e-05
-6.05872e-05
-1.68074e-05
-5.77993e-05
-2.06219e-05
-5.50009e-05
-2.42548e-05
-5.21381e-05
-2.7682e-05
-4.91035e-05
-3.08559e-05
-4.57892e-05
-3.37067e-05
-4.21197e-05
-3.61492e-05
-3.80669e-05
-3.80928e-05
-3.36508e-05
-3.94559e-05
-2.89353e-05
-4.01831e-05
-2.40191e-05
-4.02581e-05
-1.9025e-05
-3.97092e-05
-1.40838e-05
-3.86042e-05
-9.31822e-06
-3.70374e-05
-4.83263e-06
-3.51179e-05
-7.10397e-07
-3.29602e-05
2.98096e-06
-3.06774e-05
6.18356e-06
-2.83773e-05
8.85358e-06
-2.61584e-05
1.09846e-05
1.26711e-05
-2.40981e-05
-3.83868e-06
-6.05503e-05
-7.67665e-06
-5.9399e-05
-1.13847e-05
-5.68792e-05
-1.49306e-05
-5.42534e-05
-1.83056e-05
-5.16259e-05
-2.14979e-05
-4.89458e-05
-2.44835e-05
-4.61179e-05
-2.72226e-05
-4.30501e-05
-2.96616e-05
-3.96809e-05
-3.17376e-05
-3.59909e-05
-3.33869e-05
-3.20016e-05
-3.45543e-05
-2.77679e-05
-3.52036e-05
-2.33699e-05
-3.53257e-05
-1.8903e-05
-3.49417e-05
-1.44678e-05
-3.40998e-05
-1.01601e-05
-3.28684e-05
-6.06395e-06
-3.13285e-05
-2.25028e-06
-2.95683e-05
1.22064e-06
-2.7679e-05
4.29431e-06
-2.57514e-05
6.92594e-06
-2.38705e-05
9.10366e-06
1.09049e-05
-2.21042e-05
-3.40079e-06
-5.71494e-05
-6.78988e-06
-5.601e-05
-1.00609e-05
-5.36081e-05
-1.31855e-05
-5.11289e-05
-1.61491e-05
-4.86622e-05
-1.89371e-05
-4.61578e-05
-2.15271e-05
-4.35279e-05
-2.38868e-05
-4.06905e-05
-2.59748e-05
-3.75929e-05
-2.77448e-05
-3.42209e-05
-2.91515e-05
-3.05949e-05
-3.01569e-05
-2.67625e-05
-3.07371e-05
-2.27897e-05
-3.08871e-05
-1.87529e-05
-3.0623e-05
-1.47318e-05
-2.998e-05
-1.0803e-05
-2.90086e-05
-7.03532e-06
-2.77699e-05
-3.48906e-06
-2.63318e-05
-2.17462e-07
-2.47682e-05
2.73071e-06
-2.31551e-05
5.31281e-06
-2.15652e-05
7.51389e-06
9.39743e-06
-2.00577e-05
-2.99391e-06
-5.41556e-05
-5.96866e-06
-5.30353e-05
-8.83495e-06
-5.07419e-05
-1.15674e-05
-4.83965e-05
-1.4149e-05
-4.60805e-05
-1.65652e-05
-4.37417e-05
-1.87973e-05
-4.12959e-05
-2.082e-05
-3.86678e-05
-2.26021e-05
-3.58108e-05
-2.41095e-05
-3.27134e-05
-2.53095e-05
-2.93949e-05
-2.61755e-05
-2.58966e-05
-2.66913e-05
-2.22739e-05
-2.68544e-05
-1.85898e-05
-2.66771e-05
-1.49091e-05
-2.61854e-05
-1.12946e-05
-2.54169e-05
-7.80377e-06
-2.44181e-05
-4.48792e-06
-2.3242e-05
-1.39361e-06
-2.19478e-05
1.4366e-06
-2.05996e-05
3.96468e-06
-1.926e-05
6.17429e-06
8.11702e-06
-1.79795e-05
-2.59712e-06
-5.15585e-05
-5.19439e-06
-5.04381e-05
-7.69466e-06
-4.82416e-05
-1.0067e-05
-4.60241e-05
-1.22947e-05
-4.38528e-05
-1.43668e-05
-4.16696e-05
-1.62709e-05
-3.93919e-05
-1.79892e-05
-3.69495e-05
-1.94989e-05
-3.4301e-05
-2.07751e-05
-3.14373e-05
-2.17938e-05
-2.83763e-05
-2.25358e-05
-2.51547e-05
-2.29899e-05
-2.18198e-05
-2.31547e-05
-1.84249e-05
-2.30396e-05
-1.50242e-05
-2.26638e-05
-1.16704e-05
-2.20553e-05
-8.41231e-06
-2.12491e-05
-5.29413e-06
-2.02866e-05
-2.35607e-06
-1.92155e-05
3.65504e-07
-1.80901e-05
2.83939e-06
-1.69652e-05
5.0494e-06
7.03614e-06
-1.58843e-05
-2.20569e-06
-4.93529e-05
-4.46539e-06
-4.81784e-05
-6.63709e-06
-4.60699e-05
-8.67652e-06
-4.39847e-05
-1.05718e-05
-4.19575e-05
-1.23209e-05
-3.99204e-05
-1.39198e-05
-3.77928e-05
-1.53586e-05
-3.55107e-05
-1.66213e-05
-3.30382e-05
-1.76895e-05
-3.03692e-05
-1.85451e-05
-2.75208e-05
-1.91741e-05
-2.45258e-05
-1.9568e-05
-2.14259e-05
-1.9726e-05
-1.82668e-05
-1.96551e-05
-1.50952e-05
-1.93691e-05
-1.19564e-05
-1.88886e-05
-8.8929e-06
-1.82391e-05
-5.94355e-06
-1.74522e-05
-3.14298e-06
-1.6566e-05
-5.20714e-07
-1.56276e-05
1.90107e-06
-1.46871e-05
4.10886e-06
6.13147e-06
-1.37825e-05
-1.80726e-06
-4.75456e-05
-3.78587e-06
-4.61997e-05
-5.66168e-06
-4.4194e-05
-7.38413e-06
-4.22622e-05
-8.95889e-06
-4.03827e-05
-1.03988e-05
-3.84805e-05
-1.17098e-05
-3.64817e-05
-1.28885e-05
-3.4332e-05
-1.39241e-05
-3.20027e-05
-1.48022e-05
-2.94912e-05
-1.55087e-05
-2.68142e-05
-1.60327e-05
-2.40018e-05
-1.63676e-05
-2.10909e-05
-1.65128e-05
-1.81216e-05
-1.64731e-05
-1.51349e-05
-1.62586e-05
-1.2171e-05
-1.58833e-05