/*--------------------------------*- C++ -*----------------------------------*\
| =========                 |                                                 |
| \\      /  F ield         | OpenFOAM: The Open Source CFD Toolbox           |
|  \\    /   O peration     | Version:  v2012                                 |
|   \\  /    A nd           | Website:  www.openfoam.com                      |
|    \\/     M anipulation  |                                                 |
\*---------------------------------------------------------------------------*/
FoamFile
{
    version     2.0;
    format      ascii;
    class       surfaceScalarField;
    location    "0.55";
    object      alphaPhi0.water;
}
// * * * * * * * * * * * * * * * * * * * * * * * * * * * * * * * * * * * * * //

dimensions      [0 3 -1 0 0 0 0];
oriented        oriented;


internalField   nonuniform List<scalar> 
4432
(
-4.98372e-06
4.98372e-06
-6.77283e-06
1.78912e-06
-5.28942e-06
-1.48342e-06
-2.61374e-06
-2.67567e-06
2.70495e-07
-2.88424e-06
2.98309e-06
-2.7126e-06
5.3899e-06
-2.40681e-06
7.47264e-06
-2.08273e-06
9.25584e-06
-1.78321e-06
1.0772e-05
-1.51616e-06
1.20464e-05
-1.27437e-06
1.3093e-05
-1.0466e-06
1.39069e-05
-8.13909e-07
1.44464e-05
-5.39514e-07
1.45704e-05
-1.23975e-07
1.39953e-05
5.75106e-07
1.24054e-05
1.58987e-06
9.43972e-06
2.96566e-06
4.90743e-06
4.5323e-06
-9.81739e-07
5.90676e-06
-6.84596e-06
6.11927e-06
-9.41167e-06
2.36193e-06
-9.66112e-06
-3.6925e-06
8.67622e-06
-3.58424e-06
1.68086e-06
-1.90608e-06
-3.16158e-06
4.38257e-07
-5.02001e-06
2.94301e-06
-5.38899e-06
5.32384e-06
-5.09344e-06
7.46207e-06
-4.54504e-06
9.32842e-06
-3.94908e-06
1.09328e-05
-3.3876e-06
1.22951e-05
-2.87848e-06
1.34295e-05
-2.40876e-06
1.43412e-05
-1.95831e-06
1.50237e-05
-1.49641e-06
1.54494e-05
-9.65234e-07
1.55706e-05
-2.45164e-07
1.52972e-05
8.48531e-07
1.43958e-05
2.49131e-06
1.254e-05
4.82146e-06
9.34275e-06
7.72952e-06
4.65346e-06
1.05961e-05
-7.64933e-07
1.16922e-05
-3.70299e-06
5.09674e-06
-1.33742e-05
-1.83255e-06
1.05088e-05
-1.00585e-06
8.54164e-07
6.38486e-07
-4.80592e-06
2.73535e-06
-7.11688e-06
4.92329e-06
-7.57693e-06
6.99245e-06
-7.1626e-06
8.8558e-06
-6.4084e-06
1.04898e-05
-5.58302e-06
1.18992e-05
-4.79706e-06
1.30954e-05
-4.07462e-06
1.40829e-05
-3.39629e-06
1.48601e-05
-2.73557e-06
1.54201e-05
-2.05639e-06
1.57437e-05
-1.28884e-06
1.57989e-05
-3.0037e-07
1.55301e-05
1.1174e-06
1.48264e-05
3.19501e-06
1.3533e-05
6.11477e-06
1.14641e-05
9.79843e-06
8.53286e-06
1.35273e-05
4.95355e-06
1.52715e-05
1.52279e-06
8.62374e-06
-1.18623e-05
-8.25256e-08
1.05913e-05
1.22506e-06
-4.53418e-07
2.91926e-06
-6.50012e-06
4.81689e-06
-9.01451e-06
6.70554e-06
-9.46558e-06
8.4638e-06
-8.92086e-06
1.00455e-05
-7.99011e-06
1.14387e-05
-6.97624e-06
1.2646e-05
-6.00435e-06
1.36712e-05
-5.09976e-06
1.45096e-05
-4.23468e-06
1.51529e-05
-3.37894e-06
1.55948e-05
-2.49824e-06
1.58263e-05
-1.52037e-06
1.58331e-05
-3.07224e-07
1.55873e-05
1.36327e-06
1.50391e-05
3.74317e-06
1.41266e-05
7.02725e-06
1.27956e-05
1.11294e-05
1.09866e-05
1.53363e-05
8.53997e-06
1.77182e-05
5.02995e-06
1.22868e-05
-6.82145e-06
1.73068e-06
8.86062e-06
3.32247e-06
-2.04521e-06
5.07705e-06
-8.25471e-06
6.78336e-06
-1.07208e-05
8.36633e-06
-1.10485e-05
9.80536e-06
-1.03599e-05
1.10991e-05
-9.28388e-06
1.22467e-05
-8.12377e-06
1.32477e-05
-7.0054e-06
1.40991e-05
-5.95112e-06
1.47867e-05
-4.92232e-06
1.52956e-05
-3.88782e-06
1.56207e-05
-2.82341e-06
1.57646e-05
-1.66424e-06
1.57321e-05
-2.74681e-07
1.55211e-05
1.57425e-06
1.51192e-05
4.14506e-06
1.45125e-05
7.63399e-06
1.37112e-05
1.19306e-05
1.26561e-05
1.63915e-05
1.09951e-05
1.93792e-05
7.52036e-06
1.57616e-05
6.87117e-07
3.07606e-06
5.78456e-06
5.29834e-06
-4.26748e-06
7.14755e-06
-1.01039e-05
8.63925e-06
-1.22125e-05
9.891e-06
-1.23003e-05
1.10008e-05
-1.14697e-05
1.20065e-05
-1.02896e-05
1.29103e-05
-9.02763e-06
1.37064e-05
-7.80147e-06
1.43848e-05
-6.62954e-06
1.49222e-05
-5.45972e-06
1.52966e-05
-4.26214e-06
1.55052e-05
-3.03205e-06
1.55626e-05
-1.7216e-06
1.54938e-05
-2.05958e-07
1.53214e-05
1.74673e-06
1.50578e-05
4.40864e-06
1.47129e-05
7.97888e-06
1.43327e-05
1.23108e-05
1.38634e-05
1.68608e-05
1.28467e-05
2.03958e-05
9.48481e-06
1.91235e-05
1.01654e-05
4.12956e-06
1.655e-06
7.1848e-06
-7.32273e-06
9.13002e-06
-1.20491e-05
1.03407e-05
-1.34232e-05
1.1227e-05
-1.31866e-05
1.20081e-05
-1.22508e-05
1.27387e-05
-1.10202e-05
1.3411e-05
-9.69989e-06
1.40097e-05
-8.40015e-06
1.45197e-05
-7.13958e-06
1.49095e-05
-5.84952e-06
1.51501e-05
-4.50276e-06
1.52421e-05
-3.12405e-06
1.52124e-05
-1.69188e-06
1.51069e-05
-1.00432e-07
1.49716e-05
1.88198e-06
1.48368e-05
4.54341e-06
1.47225e-05
8.09324e-06
1.47035e-05
1.23298e-05
1.47543e-05
1.681e-05
1.44147e-05
2.07354e-05
1.14586e-05
2.20796e-05
2.16178e-05
5.20792e-06
-3.55292e-06
9.03246e-06
-1.1147e-05
1.08852e-05
-1.39015e-05
1.17087e-05
-1.42463e-05
1.22326e-05
-1.37101e-05
1.27322e-05
-1.27501e-05
1.32386e-05
-1.15263e-05
1.37185e-05
-1.01797e-05
1.41446e-05
-8.82619e-06
1.45008e-05
-7.49574e-06
1.47496e-05
-6.09834e-06
1.48586e-05
-4.61176e-06
1.48347e-05
-3.1001e-06
1.47172e-05
-1.57435e-06
1.4572e-05
4.46739e-08
1.44698e-05
1.98421e-06
1.44514e-05
4.56184e-06
1.45375e-05
8.00715e-06
1.48366e-05
1.20308e-05
1.53871e-05
1.62594e-05
1.58447e-05
2.02779e-05
1.40257e-05
2.38986e-05
3.56374e-05
7.53977e-14
-2.50636e-13
1.58648e-14
1.17093e-13
7.62619e-15
1.3594e-15
6.88826e-16
1.14414e-15
-7.92507e-11
8.19224e-11
-1.59024e-09
1.48629e-09
-1.3164e-08
9.58756e-09
-9.65244e-08
5.65028e-08
-6.26943e-07
4.02897e-07
-1.6644e-06
4.26448e-07
-2.92333e-06
4.4596e-07
-1.09834e-05
3.58138e-07
-3.35895e-05
-5.28514e-07
-6.65577e-05
-2.43481e-06
-0.000101388
-7.42033e-06
-0.000129233
-1.90258e-05
-0.000126507
-4.6771e-05
-6.49354e-05
-8.95918e-05
-8.58362e-05
6.61728e-13
-1.08221e-12
4.53442e-13
8.77149e-13
4.40493e-13
2.69846e-14
-3.94059e-11
4.16508e-11
-1.35884e-09
1.42054e-09
-1.5406e-08
1.35407e-08
-8.41198e-08
5.97971e-08
-6.23576e-07
3.5238e-07
-2.14426e-06
5.66788e-07
-3.50775e-06
3.66325e-07
-1.65359e-06
2.74607e-08
-1.33089e-06
-1.15755e-07
-1.89199e-06
-2.70667e-07
-4.36304e-06
-4.65236e-07
-1.15734e-05
-2.04985e-06
-5.71591e-05
-7.52106e-06
-0.00011565
-5.94112e-05
-6.13991e-05
-0.000166322
-0.000146846
3.73305e-12
-7.13647e-12
2.03382e-12
-1.55736e-12
-2.20046e-14
1.93587e-12
-9.48874e-11
1.33001e-10
-1.32942e-09
2.43994e-09
-8.73796e-09
1.75201e-08
-7.80788e-08
7.77865e-08
-1.03831e-06
2.8638e-07
-1.42133e-06
1.41142e-07
-4.2334e-07
6.45664e-08
-1.33832e-07
1.32632e-09
-1.521e-07
-2.40079e-08
-3.81514e-07
-7.83197e-08
-8.9925e-07
-1.53773e-07
-2.67511e-06
-8.10845e-07
-8.46556e-06
-3.54113e-06
-7.40264e-05
-4.49274e-05
-4.59851e-05
-0.000223598
-0.000193419
1.2718e-11
-7.13777e-11
1.60071e-11
-2.81236e-11
-3.35077e-12
1.76035e-11
-7.08919e-11
1.77057e-10
1.95736e-10
1.90133e-09
5.92852e-09
8.51894e-09
-2.19618e-07
6.77336e-08
-3.84573e-07
3.86924e-08
-1.59577e-07
3.48149e-08
-1.80116e-08
1.64387e-08
-1.15666e-08
-5.12724e-10
-3.04684e-08
-6.57115e-09
-9.48751e-08
-2.34328e-08
-2.21072e-07
-6.47025e-08
-7.68644e-07
-4.11645e-07
-2.72506e-06
-2.22246e-06
-4.31294e-05
-2.92804e-05
-2.72086e-05
-0.000245794
-0.000221663
2.17704e-10
-1.10628e-09
3.3867e-10
-3.97522e-10
-1.18069e-11
3.4447e-10
-1.89242e-10
2.16961e-10
6.99113e-10
7.24769e-10
-1.55685e-08
5.539e-09
-5.23531e-08
1.15284e-09
-5.85189e-08
2.28753e-08
-2.27342e-08
6.34541e-09
-3.18581e-09
1.46932e-09
-2.03482e-09
-4.16239e-10
-5.11817e-09
-2.84248e-09
-2.1346e-08
-8.65943e-09
-6.10846e-08
-3.64056e-08
-1.93319e-07
-3.37865e-07
-2.33514e-06
-1.5507e-06
-1.00942e-05
-0.000129287
-1.05511e-05
-0.000247918
-0.00023246
1.46664e-08
-2.53832e-08
5.61204e-09
4.37578e-09
-9.55346e-13
5.82524e-09
-1.08669e-10
1.42901e-10
-4.74222e-11
5.18487e-10
-2.18809e-09
7.78486e-10
-1.11934e-08
2.35328e-09
-1.13808e-08
8.01573e-09
-2.7368e-09
2.23258e-09
-7.82858e-10
2.54038e-10
-3.99866e-10
-3.60576e-10
-4.51655e-10
-1.64254e-09
-5.07746e-09
-3.537e-09
-1.87534e-08
-2.56937e-08
-4.61055e-09
-3.80792e-07
2.15104e-06
-4.12008e-06
1.00859e-05
-0.000185392
1.01457e-06
-0.000240825
-0.000231522
2.17883e-07
-4.23599e-07
1.27335e-07
-1.44892e-06
1.1947e-09
5.74289e-08
-6.27406e-11
1.20599e-09
-1.29469e-10
3.56232e-10
-5.93129e-10
7.85351e-10
-2.22409e-09
1.81025e-09
-1.24405e-09
2.17477e-09
-8.38954e-11
3.95548e-10
1.53597e-11
7.02369e-11
5.9508e-11
-3.51008e-10
5.63204e-12
-7.16878e-10
3.52298e-10
-2.88065e-09
1.03739e-08
-3.41193e-08
5.89964e-07
-9.44824e-07
1.11208e-05
-3.55215e-05
1.91852e-05
-0.000194166
7.04982e-06
-0.000228927
-0.000224855
3.03849e-06
-2.59166e-05
-1.89476e-08
-3.01732e-07
1.23027e-09
3.68446e-08
8.3624e-12
2.26396e-09
-2.10438e-11
2.63672e-10
-7.76211e-11
6.2521e-10
-9.95299e-11
1.13261e-09
1.83025e-10
8.96725e-10
2.37346e-10
-9.16752e-12
2.69689e-10
1.16955e-10
3.47494e-10
-9.21365e-11
2.24172e-10
-4.34232e-10
2.31643e-08
-2.55077e-08
4.49868e-07
-4.48586e-07
5.70961e-06
-6.14396e-06
2.96134e-05
-9.18207e-05
2.45062e-05
-0.000190919
1.15793e-05
-0.00021604
-0.00021349
1.36376e-05
-7.71415e-06
2.00024e-05
-7.71785e-06
2.21857e-05
-6.48372e-06
2.32742e-05
-6.16859e-06
2.43867e-05
-6.43884e-06
2.57101e-05
-6.81055e-06
2.71183e-05
-7.06384e-06
2.84402e-05
-7.15567e-06
2.95151e-05
-7.09042e-06
3.02207e-05
-6.82751e-06
3.03947e-05
-6.05996e-06
3.0238e-05
-4.45583e-06
2.98333e-05
-2.69576e-06
2.93017e-05
-1.04276e-06
2.88585e-05
4.87877e-07
2.87295e-05
2.11316e-06
2.9036e-05
4.25538e-06
2.97556e-05
7.28757e-06
3.1269e-05
1.05173e-05
3.39552e-05
1.35732e-05
3.77611e-05
1.6472e-05
4.30414e-05
1.86184e-05
2.17496e-05
5.69255e-05
1.89396e-06
2.59831e-14
2.05966e-06
3.14789e-14
2.45498e-06
7.9491e-14
2.98845e-06
1.47976e-13
3.83675e-06
2.34167e-13
5.05393e-06
3.19571e-13
6.78199e-06
3.96612e-13
9.19464e-06
4.6816e-13
1.24266e-05
4.36363e-13
1.63018e-05
2.44683e-13
2.00148e-05
2.01854e-14
2.26882e-05
-1.05201e-06
2.446e-05
-7.51268e-07
2.54446e-05
-9.51983e-08
2.54759e-05
8.88839e-07
2.55996e-05
1.98943e-06
2.63469e-05
3.5081e-06
2.73505e-05
6.28392e-06
2.93556e-05
8.51227e-06
3.28525e-05
1.00762e-05
3.75936e-05
1.17308e-05
4.35118e-05
1.27002e-05
1.32514e-05
5.20099e-05
-8.46602e-15
4.99246e-14
-2.55721e-14
8.7237e-14
-1.20206e-13
2.6775e-13
-2.82126e-13
4.75364e-13
-4.58149e-13
6.44023e-13
-6.45525e-13
8.41661e-13
-8.6795e-13
1.12275e-12
-1.16303e-12
1.52194e-12
-1.27546e-12
1.84928e-12
-8.59239e-13
1.70451e-12
-8.55283e-14
6.09064e-13
1.21609e-06
6.14278e-13
3.47252e-06
2.36601e-13
7.13424e-06
1.83151e-09
1.30618e-05
1.97575e-08
1.95274e-05
3.12134e-07
2.31509e-05
1.59113e-06
2.47336e-05
4.70116e-06
2.70225e-05
6.22345e-06
3.09038e-05
6.19491e-06
3.53332e-05
7.30136e-06
4.04999e-05
7.53361e-06
6.94137e-06
4.68099e-05
2.83549e-14
3.56686e-14
4.2677e-14
1.16842e-13
-7.04291e-14
3.95151e-13
-3.51316e-13
7.78046e-13
-7.55305e-13
1.015e-12
-1.29265e-12
1.23095e-12
-2.10073e-12
1.47234e-12
-3.40599e-12
1.76439e-12
-5.02241e-12
1.91084e-12
-6.0633e-12
1.49063e-12
-6.11474e-12
4.29609e-13
-4.9405e-12
2.82179e-13
-3.38561e-12
7.40303e-14
1.78037e-09
4.93973e-11
2.13289e-08
7.82767e-11
6.27889e-07
1.4036e-09
3.56005e-06
3.35226e-09
1.12156e-05
3.83175e-08
2.27526e-05
4.1447e-07
2.98249e-05
1.56279e-06
3.41447e-05
2.98162e-06
3.89974e-05
2.6809e-06
1.54336e-06
4.43954e-05
2.3813e-14
7.84195e-15
7.31956e-14
4.27575e-14
-1.23258e-14
2.88526e-13
-2.3641e-13
6.24664e-13
-6.16673e-13
8.66466e-13
-1.13096e-12
1.03619e-12
-1.84306e-12
1.11313e-12
-2.93212e-12
1.07941e-12
-4.45298e-12
9.23671e-13
-6.11613e-12
6.54182e-13
-7.51026e-12
3.39589e-13
-7.58977e-12
1.56455e-13
-6.56628e-12
-2.92117e-15
-3.03438e-12
-2.63603e-13
6.69849e-11
8.27975e-12
1.4528e-09
1.5837e-11
4.81542e-09
1.60253e-11
4.32909e-08
2.66256e-11
1.22347e-06
-5.3629e-11
6.81419e-06
-2.11465e-12
1.94255e-05
-3.04496e-08
3.46055e-05
-6.21402e-07
-1.30701e-06
4.49191e-05
2.67302e-15
1.19023e-15
1.70772e-14
4.34717e-15
-1.01387e-14
1.27721e-13
-1.14962e-13
3.0577e-13
-3.22829e-13
4.65547e-13
-6.12249e-13
5.85451e-13
-9.45405e-13
6.51115e-13
-1.2847e-12
6.54696e-13
-1.60608e-12
5.94308e-13
-1.90303e-12
4.77661e-13
-2.15992e-12
3.30671e-13
-2.27291e-12
1.97249e-13
-2.24248e-12
6.85512e-14
-2.12162e-12
-9.03215e-14
-8.78576e-13
-1.10165e-13
1.32125e-11
1.62861e-12
2.83829e-11
9.34514e-13
5.5624e-11
3.74539e-14
2.03251e-12
-2.39843e-14
8.81841e-14
-7.58129e-15
5.24207e-09
-1.62949e-14
1.33963e-06
-4.66334e-17
1.32054e-17
6.30363e-06
1.2078e-16
3.36485e-16
1.21007e-15
3.21838e-16
-6.10458e-15
3.86321e-14
-4.26509e-14
1.05901e-13
-1.21662e-13
1.74732e-13
-2.41711e-13
2.30046e-13
-3.92941e-13
2.64325e-13
-5.63711e-13
2.74712e-13
-7.45349e-13
2.61331e-13
-9.32627e-13
2.2745e-13
-1.11598e-12
1.80166e-13
-1.26914e-12
1.28766e-13
-1.38309e-12
7.51717e-14
-1.46224e-12
2.10205e-14
-1.49926e-12
-6.1905e-14
-8.40885e-13
-6.51161e-14
8.53104e-14
8.31851e-15
1.12013e-13
1.07516e-14
1.88612e-14
4.97934e-17
1.76453e-14
1.65123e-15
8.68321e-16
4.82135e-16
2.44788e-18
8.1924e-16
3.90883e-16
-7.03673e-17
1.1832e-18
7.90481e-17
-4.09216e-18
6.7718e-17
-1.93185e-15
8.97595e-15
-1.16153e-14
2.74994e-14
-3.35638e-14
4.78595e-14
-6.8921e-14
6.47998e-14
-1.16267e-13
7.58398e-14
-1.73237e-13
8.02626e-14
-2.37592e-13
7.81729e-14
-3.07439e-13
7.04897e-14
-3.80065e-13
5.884e-14
-4.51325e-13
4.56815e-14
-5.18637e-13
3.21176e-14
-5.79996e-13
1.88779e-14
-6.35259e-13
7.74393e-15
-6.67546e-13
1.17865e-15
-6.39309e-13
-2.22146e-15
-4.09913e-13
5.76554e-16
-1.14158e-13
1.89516e-15
-2.20857e-14
1.72773e-15
-3.34454e-15
1.50082e-16
-6.02285e-15
-1.3973e-15
-4.65655e-15
-2.37231e-15
-4.19871e-19
1.22933e-17
-1.10064e-18
9.96414e-18
-3.62079e-16
1.59711e-15
-2.20287e-15
5.28017e-15
-6.57333e-15
9.44061e-15
-1.39283e-14
1.28793e-14
-2.41756e-14
1.50766e-14
-3.6941e-14
1.59207e-14
-5.16399e-14
1.53325e-14
-6.75198e-14
1.34044e-14
-8.35085e-14
1.0259e-14
-9.92628e-14
7.01002e-15
-1.143e-13
4.40148e-15
-1.26619e-13
2.22433e-15
-1.33201e-13
4.52636e-16
-1.28125e-13
-1.37607e-15
-1.09975e-13
-3.57734e-15
-8.6397e-14
-5.73799e-15
-5.17059e-14
-7.38554e-15
-1.97769e-14
-1.00899e-14
-1.14028e-15
-1.34769e-14
1.62602e-14
-2.24072e-14
-4.20533e-14
3.05721e-14
-4.29311e-20
1.09757e-18
-8.44427e-20
1.58348e-18
-3.65043e-17
1.95549e-16
-2.5859e-16
6.90684e-16
-8.38408e-16
1.25306e-15
-1.86761e-15
1.69572e-15
-3.34675e-15
1.9459e-15
-5.21047e-15
1.9837e-15
-7.26084e-15
1.71732e-15
-9.13602e-15
1.08897e-15
-1.01022e-14
-2.96986e-17
-1.00904e-14
-1.57969e-15
-9.4859e-15
-2.30581e-15
-7.44884e-15
-2.43759e-15
-2.44315e-15
-2.57994e-15
8.98437e-15
-3.42082e-15
4.92477e-14
-5.19578e-15
7.16962e-14
-8.99759e-15
8.04501e-14
-6.98953e-15
8.54993e-14
-1.02148e-14
1.03172e-13
-1.16316e-14
1.91693e-13
-1.6639e-14
-3.24008e-14
3.1013e-13
4.97262e-21
5.87505e-20
8.43255e-19
3.96467e-19
-4.64783e-19
1.37356e-17
-1.25899e-17
5.3468e-17
-5.65166e-17
1.03004e-16
-1.44478e-16
1.38412e-16
-2.75936e-16
1.48896e-16
-4.36456e-16
1.26349e-16
-5.62892e-16
3.99916e-17
-5.19516e-16
-1.38696e-16
7.50022e-17
-6.24217e-16
1.82357e-15
-1.49679e-15
3.63294e-15
-2.36796e-15
5.63005e-15
-2.21351e-15
9.01909e-15
-1.47085e-15
1.88606e-14
-7.98616e-16
3.37812e-14
-7.89934e-16
3.95964e-14
-1.08131e-15
4.19848e-14
-1.36487e-15
3.79181e-14
-1.30845e-15
4.01849e-14
-8.71083e-16
5.97955e-14
-5.73661e-16
-2.03893e-16
1.59379e-13
4.21815e-21
1.13874e-20
2.44192e-19
7.93079e-20
9.75522e-19
6.40867e-19
1.07218e-18
3.80333e-18
-7.06938e-19
9.09652e-18
-4.757e-18
1.17612e-17
-1.11834e-17
9.76949e-18
-1.67577e-17
6.09542e-19
-8.48103e-18
-1.35691e-17
8.26266e-17
-1.14038e-16
4.58384e-16
-1.15439e-16
1.2918e-15
-1.58733e-16
1.81012e-15
-4.06339e-16
1.7999e-15
-3.61538e-16
1.1742e-15
-2.18562e-16
8.51516e-16
-8.09658e-17
9.36894e-16
-3.06551e-17
1.48651e-15
-2.5872e-17
1.99238e-15
-2.72078e-17
2.0317e-15
-3.81194e-17
6.95839e-16
-5.79706e-17
2.42272e-16
-6.24101e-17
-7.81045e-17
2.16863e-16
1.36315e-21
3.56228e-21
1.88828e-20
2.67318e-20
1.36224e-19
2.00723e-19
3.20754e-19
9.85221e-19
3.12726e-19
2.16448e-18
8.03305e-20
2.43835e-18
-1.99912e-19
1.52613e-18
-3.77282e-20
-4.413e-19
3.04773e-18
-1.45266e-18
1.60955e-17
-5.60004e-18
1.92758e-17
-1.1465e-17
4.73373e-17
-1.48529e-17
1.34972e-16
-1.46343e-17
1.64922e-16
-1.38617e-17
9.90213e-17
-1.11706e-17
3.83055e-17
-1.13594e-17
3.00435e-17
-1.44394e-17
3.33297e-17
-1.68319e-17
4.64363e-17
-1.97467e-17
7.6569e-17
-2.43255e-17
1.28299e-16
-2.68871e-17
2.09599e-16
-2.71596e-17
-2.52491e-17
2.85207e-16
5.89086e-22
9.339e-22
7.67948e-21
7.06852e-21
4.85346e-20
4.86828e-20
1.17946e-19
2.05003e-19
1.29264e-19
4.0688e-19
6.65281e-20
3.86193e-19
-1.08609e-20
1.72515e-19
4.43638e-21
-1.23202e-20
5.43361e-20
-2.24175e-19
4.83014e-19
-1.05744e-18
1.43637e-18
-1.71191e-18
2.38329e-18
-1.83824e-18
3.23321e-18
-1.74211e-18
4.17033e-18
-1.3622e-18
4.53368e-18
-8.3591e-19
6.8896e-18
-5.67706e-19
1.46083e-17
-5.61642e-19
2.45367e-17
-5.93378e-19
3.47839e-17
-6.29135e-19
3.7869e-17
-6.00045e-19
3.8192e-17
-5.8381e-19
3.85428e-17
-6.09969e-19
-8.4088e-19
3.86849e-17
1.76763e-22
1.93606e-22
2.13946e-21
1.39969e-21
1.19829e-20
8.77452e-21
2.77445e-20
3.22613e-20
2.79499e-20
5.66915e-20
1.20742e-20
4.36657e-20
-5.36528e-22
1.39106e-20
-1.23363e-21
-7.62192e-21
-3.47715e-21
-2.80938e-20
2.73371e-20
-1.02333e-19
9.46354e-20
-1.70652e-19
1.68399e-19
-1.80804e-19
2.46642e-19
-1.54345e-19
2.38839e-19
-9.00217e-20
1.84765e-19
-3.27959e-20
1.99244e-19
-1.50002e-20
2.57739e-19
-1.49076e-20
3.40501e-19
-1.59852e-20
4.12333e-19
-1.75776e-20
4.60695e-19
-2.29428e-20
5.58148e-19
-4.99464e-20
8.77216e-19
-1.59513e-19
-7.38141e-19
2.33813e-18
3.67647e-23
2.95633e-23
4.10613e-22
1.93835e-22
2.05738e-21
1.08521e-21
4.36009e-21
3.4683e-21
3.73227e-21
5.24718e-21
1.23208e-21
3.1047e-21
-4.72837e-22
6.98305e-22
-5.33778e-22
-4.098e-22
-1.86302e-21
-2.38811e-21
-1.90209e-21
-7.34967e-21
1.93855e-21
-1.03978e-20
7.12837e-21
-1.05049e-20
1.0723e-20
-8.10212e-21
7.41972e-21
-3.97889e-21
3.41697e-21
-1.18843e-21
3.46559e-21
-4.93815e-22
4.65993e-21
-4.98117e-22
6.50068e-21
-5.88609e-22
9.33327e-21
-1.21676e-21
1.94114e-20
-6.05955e-21
8.03974e-20
-3.68746e-20
3.89622e-19
-1.79536e-19
-1.11064e-18
2.05105e-18
5.06782e-24
3.04623e-24
5.13591e-23
1.71521e-23
2.28533e-22
8.15043e-23
4.27556e-22
2.18075e-22
2.89815e-22
2.76113e-22
7.02822e-23
1.2214e-22
-2.29192e-23
-2.03517e-24
-4.94375e-23
-3.58718e-23
-2.3956e-22
-1.31721e-22
-3.37463e-22
-3.07366e-22
-1.90844e-22
-4.24002e-22
3.56274e-23
-4.3312e-22
2.04646e-22
-3.51315e-22
1.51508e-22
-1.96593e-22
6.73969e-23
-6.87181e-23
7.31415e-23
-2.39639e-23
1.05863e-22
-2.68158e-23
1.93695e-22
-7.22568e-23
7.89351e-22
-5.33101e-22
6.60919e-21
-4.72566e-21
5.63578e-20
-3.74037e-20
3.88059e-19
-2.66803e-19
-2.58293e-18
3.72104e-18
4.2928e-25
2.20954e-25
3.76223e-24
1.14324e-24
1.43067e-23
4.6135e-24
2.28793e-23
1.12424e-23
1.18625e-23
1.59462e-23
-2.18919e-25
1.01539e-23
-7.03572e-25
6.66177e-25
-4.07221e-24
-1.52271e-24
-1.28606e-23
-4.51121e-24
-1.97309e-23
-7.65671e-24
-1.66675e-23
-1.29855e-23
-9.17842e-24
-1.48701e-23
-7.7496e-25
-1.38531e-23
2.85e-24
-9.0504e-24
1.90295e-24
-3.17471e-24
2.07913e-24
-1.23945e-24
4.20824e-24
-3.4366e-24
2.63501e-23
-3.19994e-23
3.22833e-22
-3.50721e-22
3.96053e-21
-3.4947e-21
4.36853e-20
-3.68042e-20
4.97271e-19
-4.34317e-19
-4.98807e-18
6.04727e-18
2.66342e-26
2.37414e-26
2.0265e-25
1.56163e-25
7.16348e-25
7.34228e-25
1.30775e-24
2.11381e-24
9.9432e-25
3.63735e-24
7.37124e-26
2.34949e-24
-9.79796e-26
1.41834e-25
-1.87374e-25
-9.69414e-26
-3.49359e-25
-1.24292e-25
-6.70078e-25
-1.47416e-25
-7.82152e-25
-3.16658e-25
-6.01474e-25
-4.14569e-25
-3.18129e-25
-3.85439e-25
-4.06462e-26
-2.43727e-25
2.43777e-26
-7.42043e-26
5.18256e-26
-1.31643e-25
5.04921e-25
-1.32469e-24
8.95552e-24
-1.71234e-23
1.4369e-22
-2.01086e-22
1.92441e-21
-2.12069e-21
3.04898e-20
-3.27126e-20
5.63961e-19
-6.04625e-19
-7.48164e-18
7.75082e-18
3.32576e-27
3.00801e-27
3.02476e-26
1.99127e-26
1.28895e-25
9.86915e-26
2.90321e-25
3.02915e-25
2.27408e-25
5.56995e-25
1.57572e-26
2.91486e-25
-6.54843e-27
-1.04598e-26
-7.53008e-27
-1.04957e-26
-8.55128e-27
-7.3275e-27
-1.65613e-26
-6.4628e-27
-2.57265e-26
-7.91026e-27
-2.20862e-26
-7.4967e-27
-1.42191e-26
-5.91425e-27
-2.3684e-27
-3.39719e-27
-1.1186e-27
-3.04886e-27
1.33796e-27
-3.53483e-26
9.84453e-26
-5.62144e-25
2.5816e-24
-7.73859e-24
4.75732e-23
-9.66532e-23
7.32967e-22
-1.0605e-21
1.81836e-20
-2.46066e-20
5.3007e-19
-7.00153e-19
-9.13283e-18
7.85778e-18
3.8452e-28
1.92981e-28
3.79415e-27
1.28163e-27
1.75702e-26
6.66852e-27
4.29101e-26
2.16192e-26
2.75765e-26
3.99668e-26
-1.14992e-27
-8.5106e-27
-7.12941e-28
-6.77437e-27
-5.58136e-28
-7.84365e-28
-4.64043e-28
-4.8409e-28
-5.60423e-28
-3.5717e-28
-5.31128e-28
-2.3278e-28
-4.35398e-28
-1.00995e-28
-1.9479e-28
-1.88135e-29
-1.58699e-28
-3.67631e-29
-2.02017e-28
-6.31093e-28
-1.8708e-27
-1.24253e-26
-2.8322e-27
-2.04446e-25
3.88497e-25
-3.0911e-24
1.1236e-23
-4.03638e-23
2.11088e-22
-4.475e-22
8.52678e-21
-1.53489e-20
4.19822e-19
-6.67136e-19
-9.3153e-18
6.66548e-18
2.24833e-29
2.19629e-31
2.40134e-28
5.41986e-31
1.19471e-27
4.09849e-31
2.96779e-27
-1.8671e-30
-7.83596e-28
-5.25583e-28
-7.31626e-28
-6.02541e-27
-6.82691e-29
-1.00028e-27
-3.92585e-29
-1.5532e-29
-3.03328e-29
-8.22909e-30
-2.18988e-29
-8.92074e-30
-1.11581e-29
-8.27673e-30
-1.36031e-30
-4.445e-30
-1.30321e-30
-1.14933e-30
-4.52607e-30
-8.69878e-30
-8.47004e-29
-1.91427e-28
-1.25994e-27
-3.70187e-27
-1.4394e-26
-6.8143e-26
-8.13989e-26
-1.12585e-24
1.06819e-24
-1.51724e-23
4.02362e-23
-1.6618e-22
2.93399e-21
-7.91251e-21
2.22027e-19
-4.56061e-19
-7.3947e-18
4.25491e-18
8.72099e-33
1.78839e-34
1.39691e-32
3.3608e-34
-9.90282e-32
2.45202e-34
-3.3438e-30
4.36106e-35
-5.40441e-28
-1.10058e-35
-1.04694e-28
-4.11936e-34
-1.37648e-30
-7.95976e-34
-5.47252e-31
-8.95792e-33
-6.36236e-31
-2.31741e-32
-6.52487e-31
-1.73067e-32
-4.73443e-31
-7.73931e-33
-9.18072e-32
-6.26766e-33
-1.15603e-31
-7.25663e-32
-1.52127e-30
-1.99861e-30
-2.96322e-29
-4.69089e-29
-5.28446e-28
-1.03314e-27
-8.61422e-27
-2.09662e-26
-1.03868e-25
-3.76992e-25
-4.29682e-25
-5.21685e-24
6.16289e-25
-5.90082e-23
5.75376e-22
-3.52705e-21
7.85489e-20
-2.82183e-19
-5.59959e-18
2.03894e-18
5.02608e-36
4.58382e-49
8.022e-36
9.53932e-47
2.24416e-36
3.16688e-45
-4.08256e-37
-6.06204e-44
-9.41946e-36
-2.07032e-41
-2.22219e-35
-8.84217e-39
-2.22187e-34
-1.30913e-36
-1.5207e-33
-1.51216e-35
-1.47875e-33
-5.82821e-35
-6.60607e-34
-1.15118e-34
-5.12315e-34
-1.70888e-34
-7.10335e-34
-6.16161e-34
-1.40596e-32
-1.63242e-32
-3.69537e-31
-4.37182e-31
-8.5694e-30
-1.12483e-29
-1.8394e-28
-2.68994e-28
-3.70513e-27
-5.98096e-27
-5.48191e-26
-1.15677e-25
-3.36555e-25
-1.6494e-24
-3.69749e-24
-2.02849e-23
-2.11268e-22
-1.56517e-21
1.34006e-20
-1.63222e-19
-3.87856e-18
7.52613e-19
1.34068e-48
-1.015e-52
1.00884e-46
-2.78926e-52
-3.0621e-45
-2.26743e-49
-6.34667e-44
-2.15804e-46
-1.85602e-41
-3.90793e-44
-6.14574e-39
-1.14618e-41
-2.72855e-37
-4.99598e-39
-2.20608e-36
-2.21181e-37
-6.17882e-36
-1.19875e-36
-9.22528e-36
-2.65442e-36
-1.49115e-35
-4.99911e-36
-1.12309e-34
-8.66212e-35
-3.20222e-33
-2.92311e-33
-8.86837e-32
-8.82115e-32
-2.298e-30
-2.49029e-30
-5.64072e-29
-6.51304e-29
-1.32311e-27
-1.56065e-27
-2.15707e-26
-3.18174e-26
-1.56686e-25
-4.74131e-25
-2.55386e-24
-7.27792e-24
-4.71892e-22
-7.10308e-22
-3.44495e-20
-9.24592e-20
-2.46559e-18
2.86863e-20
-7.91582e-55
-8.93746e-55
-2.7884e-52
-8.77795e-55
-2.25681e-49
-1.34091e-51
-2.15216e-46
-6.57235e-49
-3.90531e-44
-1.30168e-46
-1.13221e-41
-3.88015e-44
-2.56548e-39
-1.69314e-41
-3.99716e-38
-1.16482e-39
-1.2404e-37
-7.20108e-39
-2.09419e-37
-2.16987e-38
-6.34911e-37
-3.37964e-37
-1.73697e-35
-1.44216e-35
-6.03641e-34
-4.99927e-34
-1.91161e-32
-1.65204e-32
-5.60973e-31
-5.10885e-31
-1.55216e-29
-1.442e-29
-3.99774e-28
-3.63025e-28
-6.79472e-27
-7.66002e-27
-5.93024e-26
-1.25521e-25
-1.45318e-24
-3.0697e-24
-4.09274e-22
-3.46644e-22
-4.78101e-20
-4.98244e-20
-1.45887e-18
-3.6795e-19
-6.81311e-57
-5.01111e-56
-6.75859e-54
-9.05098e-55
-1.35598e-51
-2.5941e-54
-6.78429e-49
-9.29293e-52
-1.30002e-46
-2.91651e-49
-3.87906e-44
-1.04681e-46
-1.14722e-41
-6.79673e-45
-1.86172e-40
-3.28155e-43
-5.51783e-40
-1.8076e-41
-2.27646e-39
-9.57636e-40
-6.79413e-38
-4.96772e-38
-2.87394e-36
-2.01209e-36
-1.0721e-34
-7.82211e-35
-3.80484e-33
-2.84338e-33
-1.25209e-31
-9.47867e-32
-3.77515e-30
-2.83468e-30
-1.00021e-28
-7.33563e-29
-1.79717e-27
-1.64159e-27
-2.09927e-26
-3.46976e-26
-9.13217e-25
-1.57588e-24
-2.80586e-22
-1.79081e-22
-3.77989e-20
-2.50371e-20
-7.87064e-19
-4.68657e-19
-9.0894e-57
-1.61152e-57
-1.58595e-56
-1.22248e-56
-2.61002e-54
-8.21631e-56
-8.85708e-52
-4.46083e-53
-1.07122e-49
-1.30965e-50
-1.3361e-47
-6.51319e-48
-7.48055e-46
-6.91296e-46
-4.39476e-44
-3.77369e-44
-2.66493e-42
-2.22977e-42
-1.82033e-40
-1.24705e-40
-9.20437e-39
-5.71926e-39
-4.09351e-37
-2.57046e-37
-1.74071e-35
-1.11052e-35
-6.86667e-34
-4.38093e-34
-2.48026e-32
-1.53646e-32
-7.75904e-31
-4.78696e-31
-2.07255e-29
-1.30264e-29
-4.41643e-28
-3.48421e-28
-8.6867e-27
-1.24961e-26
-6.29414e-25
-9.02455e-25
-1.69416e-22
-9.15068e-23
-2.39718e-20
-1.16195e-20
-3.79416e-19
-3.94678e-19
-4.35557e-59
-4.97117e-59
-1.90425e-58
-1.66812e-59
-6.67979e-56
-4.8773e-57
-4.12685e-53
-3.31267e-54
-1.05199e-50
-1.20838e-51
-9.78934e-49
-3.67541e-49
-7.88881e-47
-3.37275e-47
-5.24538e-45
-2.87156e-45
-3.72562e-43
-1.90175e-43
-2.06531e-41
-1.07133e-41
-1.05084e-39
-5.83013e-40
-5.32384e-38
-2.96521e-38
-2.54674e-36
-1.37459e-36
-1.08651e-34
-5.79647e-35
-4.12396e-33
-2.09827e-33
-1.30908e-31
-7.01107e-32
-3.94931e-30
-2.26836e-30
-1.01108e-28
-8.83378e-29
-4.72394e-27
-5.84744e-27
-4.32523e-25
-4.88604e-25
-9.2593e-23
-4.31518e-23
-1.31889e-20
-4.90342e-21
-1.59428e-19
-2.54189e-19
-9.98749e-62
-1.29737e-60
-4.39374e-61
-4.66975e-61
-4.57004e-57
-2.75671e-58
-3.22443e-54
-1.68487e-55
-2.31706e-52
-8.25573e-53
-3.8089e-50
-2.15509e-50
-4.39562e-48
-2.2558e-48
-4.01797e-46
-1.80229e-46
-2.77582e-44
-1.32556e-44
-1.77641e-42
-9.02907e-43
-1.0871e-40
-5.42811e-41
-6.10384e-39
-2.88081e-39
-3.20482e-37
-1.42473e-37
-1.41689e-35
-6.33094e-36
-5.5282e-34
-2.44761e-34
-2.09393e-32
-9.89932e-33
-6.95387e-31
-4.51075e-31
-3.26168e-29
-3.25486e-29
-3.23028e-27
-2.72219e-27
-2.84149e-25
-2.17709e-25
-4.54653e-23
-1.7435e-23
-6.37667e-21
-1.81706e-21
-5.65172e-20
-1.27823e-19
-2.82426e-63
-2.36771e-62
-1.66232e-62
-1.18424e-62
-2.638e-58
-1.04421e-59
-1.61824e-55
-6.52455e-57
-1.20246e-53
-3.40288e-54
-2.41465e-51
-9.45392e-52
-2.59084e-49
-1.07526e-49
-2.32069e-47
-1.00789e-47
-1.96614e-45
-8.36238e-46
-1.49822e-43
-6.14062e-44
-9.73416e-42
-4.06773e-42
-5.83399e-40
-2.31033e-40
-3.24793e-38
-1.19203e-38
-1.47169e-36
-5.78323e-37
-7.25744e-35
-2.72337e-35
-2.72083e-33
-1.52493e-33
-1.58814e-31
-1.29234e-31
-2.14613e-29
-1.16175e-29
-1.82536e-27
-9.73267e-28
-1.49047e-25
-7.52415e-26
-1.92522e-23
-5.70049e-24
-2.61707e-21
-5.67574e-22
-1.6049e-20
-4.98432e-20
-7.16881e-65
-4.04137e-64
-1.01888e-62
-7.6806e-64
-1.01425e-59
-2.72266e-61
-6.34345e-57
-1.75111e-58
-4.65496e-55
-9.12827e-56
-9.61364e-53
-3.35383e-53
-1.19897e-50
-4.28906e-51
-1.26951e-48
-4.56411e-49
-1.16854e-46
-4.1918e-47
-9.86671e-45
-3.30411e-45
-7.08778e-43
-2.38541e-43
-4.4137e-41
-1.45435e-41
-2.56893e-39
-8.13125e-40
-1.65178e-37
-4.73313e-38
-6.2843e-36
-3.02659e-36
-4.87533e-34
-3.03477e-34
-1.00139e-31
-3.08931e-32
-9.07379e-30
-2.87151e-30
-7.59382e-28
-2.42584e-28
-5.89539e-26
-1.87004e-26
-6.77697e-24
-1.39607e-24
-8.8382e-22
-1.37218e-22
-3.45172e-21
-1.38905e-20
-9.19447e-67
1.9237e-65
-4.61663e-63
3.84765e-63
-2.59348e-61
-1.70856e-62
-1.72061e-58
-4.42295e-60
-1.32923e-56
-2.69446e-57
-3.20006e-54
-9.36769e-55
-4.55968e-52
-1.34645e-52
-5.48454e-50
-1.59818e-50
-5.4604e-48
-1.57475e-48
-5.03968e-46
-1.31599e-46
-3.922e-44
-1.02689e-44
-2.57325e-42
-7.07603e-43
-2.61073e-40
-4.59562e-41
-8.91231e-39
-3.23124e-39
-8.22764e-37
-3.46931e-37
-2.6452e-34
-4.15542e-35
-2.71693e-32
-4.49529e-33
-2.5124e-30
-4.37323e-31
-2.11145e-28
-3.83703e-29
-1.62436e-26
-3.04568e-27
-1.78428e-24
-2.30767e-25
-2.14496e-22
-2.31496e-23
-5.61475e-22
-2.70259e-21
4.26104e-65
1.56719e-65
-1.38394e-64
2.75735e-63
-8.67849e-62
6.9561e-62
-4.31573e-60
-1.83946e-61
-3.23961e-58
-5.38694e-59
-8.3402e-56
-1.86555e-56
-1.35233e-53
-2.85882e-54
-1.78581e-51
-3.68665e-52
-1.88042e-49
-4.16007e-50
-1.82121e-47
-3.90785e-48
-1.57432e-45
-3.33478e-46
-1.43469e-43
-2.66196e-44
-8.27464e-42
-1.84026e-42
-6.7686e-40
-1.69439e-40
-3.19861e-37
-2.42306e-38
-3.92018e-35
-3.1732e-36
-4.22519e-33
-3.71458e-34
-4.09072e-31
-3.89249e-32
-3.56948e-29
-3.6595e-30
-2.82278e-27
-3.09252e-28
-2.97316e-25
-2.42509e-26
-3.42458e-23
-2.59043e-24
-7.07743e-23
-4.09177e-22
3.39061e-65
7.27655e-66
2.07917e-63
9.32103e-64
-2.9016e-63
3.15246e-62
-5.95176e-61
4.08328e-61
-5.69557e-60
-3.7223e-61
-1.504e-57
-2.13324e-58
-2.54162e-55
-3.93523e-56
-3.78252e-53
-5.6561e-54
-4.59065e-51
-6.94697e-52
-4.7999e-49
-7.8727e-50
-5.12401e-47
-7.46403e-48
-9.8328e-45
-6.03514e-46
-2.64837e-43
-4.96601e-44
-1.30682e-40
-5.61534e-42
-2.35607e-38
-9.10468e-40
-3.0968e-36
-1.33101e-37
-3.61399e-34
-1.73524e-35
-3.77315e-32
-2.02015e-33
-3.5302e-30
-2.10343e-31
-2.97159e-28
-1.96032e-29
-2.85364e-26
-1.6471e-27
-3.66136e-24
-1.92012e-25
-6.73622e-24
-5.35177e-23
1.51294e-65
1.92731e-66
1.01838e-63
1.51698e-64
1.77465e-62
4.77432e-63
-1.77911e-62
7.0279e-62
-4.55137e-62
-1.42491e-63
-1.618e-59
-1.19289e-60
-3.16736e-57
-2.40457e-58
-4.90164e-55
-4.11529e-56
-7.14638e-53
-6.76777e-54
-9.10202e-51
-8.54437e-52
-9.58455e-49
-8.29713e-50
-1.76439e-46
-8.67773e-48
-6.65304e-45
-8.12066e-46
-4.97507e-42
-1.23918e-43
-8.97818e-40
-2.33105e-41
-1.31344e-37
-3.91792e-39
-1.70746e-35
-5.86598e-37
-1.98081e-33
-7.83229e-35
-2.05373e-31
-9.33316e-33
-1.90411e-29
-9.91595e-31
-1.63253e-27
-1.08976e-28
-2.75265e-25
-9.30179e-27
-4.15572e-25
-5.59426e-24
3.71646e-66
1.15815e-69
1.81454e-64
1.79534e-68
3.17711e-63
1.48245e-67
-7.32836e-65
-2.12603e-69
-1.49146e-63
-1.35597e-66
-7.64099e-62
-1.19165e-63
-1.59143e-59
-3.44726e-61
-3.42499e-57
-7.99909e-59
-6.33488e-55
-1.45194e-56