/*--------------------------------*- C++ -*----------------------------------*\
| =========                 |                                                 |
| \\      /  F ield         | OpenFOAM: The Open Source CFD Toolbox           |
|  \\    /   O peration     | Version:  v2012                                 |
|   \\  /    A nd           | Website:  www.openfoam.com                      |
|    \\/     M anipulation  |                                                 |
\*---------------------------------------------------------------------------*/
FoamFile
{
    version     2.0;
    format      ascii;
    class       volScalarField;
    location    "0.55";
    object      alpha.water;
}
// * * * * * * * * * * * * * * * * * * * * * * * * * * * * * * * * * * * * * //

dimensions      [0 0 0 0 0 0 0];


internalField   nonuniform List<scalar> 
2268
(
1
1
1
1
1
1
1
1
1
1
1
1
1
1
1
1
1
1
1
0.99987
0.951991
0.939995
0.964294
1
1
1
1
1
1
1
1
1
1
1
1
1
1
1
1
1
1
1
1
0.987034
0.94
0.994005
1
1
1
1
1
1
1
1
1
1
1
1
1
1
1
1
1
1
1
1
1
0.942944
0.994108
1
1
1
1
1
1
1
1
1
1
1
1
1
1
1
1
1
1
1
1
1
0.992085
0.998367
1
1
1
1
1
1
1
1
1
1
1
1
1
1
1
1
1
1
1
1
1
1
0.999183
1
1
1
1
1
1
1
1
1
1
1
1
1
1
1
1
1
1
1
1
1
1
0.999164
1
1
0.999997
0.999996
0.999996
0.999998
0.999999
1
1
1
1
1
1
1
1
1
1
1
1
1
1
1
0.99917
1
0.999947
0.999879
0.999868
0.999891
0.999923
0.999953
0.999976
0.999989
0.999997
1
1
1
1
1
1
1
1
1
1
1
1
0.99918
1.54804e-09
5.01917e-10
1.24279e-10
6.22257e-11
-1.17373e-08
1.78833e-07
1.14123e-05
0.000147083
0.000713518
0.00348938
0.00779438
0.032437
0.108634
0.234037
0.388161
0.561306
0.766862
0.864481
0.748427
3.92392e-09
2.41236e-09
1.54e-11
-8.17524e-09
-7.89696e-10
9.67189e-06
8.83151e-05
0.000886345
0.0084956
0.0135044
0.00582234
0.00271083
0.00273018
0.00465465
0.0154616
0.140008
0.667407
0.985725
0.98757
6.02554e-08
2.47482e-08
1.01058e-09
1.88181e-08
8.87188e-07
1.54354e-05
0.000177089
0.00413126
0.00683188
0.00285721
0.000720222
0.000181472
0.000321317
0.00146328
0.00453435
0.0151738
0.295305
0.967528
0.992681
8.81373e-07
9.98779e-08
1.99408e-08
1.00381e-07
1.06786e-06
1.36082e-05
0.000741494
0.00248917
0.00147624
4.82583e-05
1.7145e-05
2.45015e-05
8.56422e-05
0.0003189
0.00124971
0.0053546
0.184902
0.993043
0.993754
1.13027e-05
1.0182e-06
1.00512e-07
5.35902e-07
9.94594e-07
5.56235e-05
0.000388791
0.000305584
9.52256e-05
1.51207e-05
1.20752e-05
1.12463e-05
2.44759e-05
8.69709e-05
0.000440395
0.00527298
0.498728
0.990595
0.994831
0.000140027
2.28149e-05
5.35657e-07
7.85613e-07
5.8053e-07
2.12309e-05
4.32058e-05
7.04438e-05
2.82738e-05
1.23347e-05
1.12765e-05
8.05404e-06
1.13129e-05
3.8545e-05
0.000295162
0.00315004
0.915056
0.989144
0.994678
0.00181709
0.012132
0.000436292
7.33945e-07
9.59884e-07
1.72991e-06
7.84532e-06
2.12672e-05
1.29397e-05
1.2774e-05
1.15155e-05
7.05725e-06
6.32084e-06
2.46358e-05
0.00033044
0.106451
0.96828
0.99827
0.996719
0.243077
0.0301517
6.92941e-06
-4.60199e-07
6.60577e-07
9.47086e-07
2.58574e-06
4.20128e-06
2.68179e-06
1.01152e-05
8.94289e-06
3.5567e-06
3.80865e-06
7.8479e-05
0.0018924
0.543944
0.985412
0.999303
0.998356
0.859794
0.810861
0.791299
0.804849
0.832887
0.867849
0.904076
0.938427
0.968014
0.989579
0.999349
0.999988
0.999997
1
1
1
1
1
1
1
1
1
0.999626
0.0717392
0.0647235
0.0734985
0.0896276
0.113382
0.145461
0.18867
0.24714
0.326365
0.433387
0.570178
0.703191
0.820887
0.918489
0.983877
1
1
1
1
1
1
1
1
-5.79507e-10
-1.26697e-09
-5.05777e-09
-1.08583e-08
-1.71216e-08
-2.38967e-08
-3.18229e-08
-4.21058e-08
-4.58678e-08
-3.15502e-08
-3.55963e-09
0.0250556
0.0854636
0.18403
0.361353
0.633762
0.932326
1
1
1
1
1
1
-8.39837e-10
-2.86769e-09
-1.38734e-08
-3.0003e-08
-4.45604e-08
-6.17611e-08
-8.82364e-08
-1.32736e-07
-1.90665e-07
-2.37331e-07
-2.47194e-07
-2.14918e-07
-1.55325e-07
-2.54771e-09
7.56162e-07
0.0126751
0.0787866
0.253276
0.601603
0.977837
1
1
1
-7.19737e-10
-3.13818e-09
-1.43941e-08
-3.46155e-08
-5.15392e-08
-6.99108e-08
-9.43654e-08
-1.32482e-07
-1.84076e-07
-2.33344e-07
-2.59954e-07
-2.54382e-07
-2.22657e-07
-1.08954e-07
-2.61344e-10
1.51786e-07
3.44826e-07
8.75449e-07
0.0181343
0.106021
0.310275
0.632255
0.95239
-1.86848e-10
-1.07606e-09
-8.64009e-09
-2.19564e-08
-3.4897e-08
-4.74893e-08
-5.87203e-08
-6.78069e-08
-7.42535e-08
-7.78054e-08
-7.83825e-08
-7.6148e-08
-7.14682e-08
-6.54487e-08
-2.61093e-08
-7.38544e-09
1.41104e-09
2.75783e-09
5.092e-10
2.21273e-10
1.01362e-11
0.0146212
0.077046
-3.01434e-11
-1.08023e-10
-3.495e-09
-9.40459e-09
-1.614e-08
-2.29941e-08
-2.93769e-08
-3.4889e-08
-3.92992e-08
-4.2508e-08
-4.45067e-08
-4.53758e-08
-4.52257e-08
-4.41633e-08
-4.18218e-08
-2.19867e-08
3.11239e-25
1.58097e-26
3.71817e-10
4.07114e-10
-2.45091e-27
0
-1.67363e-12
-8.77e-12
-7.84681e-12
-9.99876e-10
-2.99992e-09
-5.48662e-09
-8.09027e-09
-1.05611e-08
-1.27497e-08
-1.45739e-08
-1.60052e-08
-1.70547e-08
-1.77801e-08
-1.82097e-08
-1.83107e-08
-1.81216e-08
-1.74067e-08
-1.55434e-08
-9.45476e-09
-2.53313e-09
-4.83668e-10
-7.39422e-11
-1.31361e-10
-5.09597e-11
-2.0684e-12
-1.62442e-12
-2.24132e-10
-7.38417e-10
-1.40381e-09
-2.10141e-09
-2.75599e-09
-3.32696e-09
-3.78627e-09
-4.11811e-09
-4.31367e-09
-4.4176e-09
-4.44483e-09
-4.34784e-09
-4.07588e-09
-3.5384e-09
-2.78949e-09
-2.04755e-09
-1.16468e-09
-4.33121e-10
-2.46431e-11
1.93911e-10
5.55028e-10
-3.1997e-13
-2.36328e-13
-3.89677e-11
-1.36761e-10
-2.63765e-10
-3.92876e-10
-5.08279e-10
-6.01769e-10
-6.61409e-10
-6.74469e-10
-6.17845e-10
-5.20688e-10
-4.20076e-10
-2.8698e-10
-8.29326e-11
9.5129e-11
8.41267e-10
1.85703e-09
1.92801e-09
1.92139e-09
2.00212e-09
2.99995e-09
5.00865e-09
-2.84682e-14
-3.73589e-14
-4.70465e-12
-1.74579e-11
-3.37938e-11
-4.93556e-11
-6.17885e-11
-6.95288e-11
-6.73438e-11
-4.85123e-11
0
7.32835e-11
1.53286e-10
2.15266e-10
2.87495e-10
4.91816e-10
8.76008e-10
1.12032e-09
1.12231e-09
9.82119e-10
9.48894e-10
1.10827e-09
1.95223e-09
-1.52911e-15
-9.36398e-15
-3.28264e-13
-1.33053e-12
-2.70844e-12
-3.88666e-12
-4.50772e-12
-4.16416e-12
-1.44989e-12
5.17674e-12
2.83122e-11
7.85363e-11
1.14863e-10
1.03953e-10
6.99794e-11
3.79992e-11
3.29802e-11
4.16497e-11
5.93602e-11
5.81954e-11
3.20091e-11
5.2915e-12
5.46318e-12
-2.99897e-16
-1.8862e-15
-1.5312e-14
-9.38568e-14
-2.35126e-13
-3.21565e-13
-2.84921e-13
-1.91166e-14
4.59542e-13
2.98227e-12
2.55213e-12
3.73997e-12
1.07267e-11
1.07888e-11
7.3849e-12
3.04503e-12
1.31639e-12
1.25484e-12
1.45152e-12
2.06842e-12
3.21004e-12
5.21036e-12
7.33831e-12
-9.56359e-17
-6.43583e-16
-4.82092e-15
-2.42606e-14
-5.53866e-14
-6.54316e-14
-4.32675e-14
1.33097e-14
2.56284e-14
1.07275e-13
2.38596e-13
3.31348e-13
3.41784e-13
3.53423e-13
3.14552e-13
3.62952e-13
6.05453e-13
9.2427e-13
1.37427e-12
1.43384e-12
1.38223e-12
1.32921e-12
1.29586e-12
-2.57039e-17
-1.73001e-16
-1.18082e-15
-5.06418e-15
-1.03708e-14
-1.02429e-14
-4.79297e-15
2.56206e-16
3.89646e-15
1.96206e-14
3.33428e-14
3.80168e-14
3.86431e-14
3.20251e-14
2.07541e-14
1.49268e-14
1.57891e-14
1.77871e-14
2.00404e-14
2.0412e-14
2.20098e-14
2.88744e-14
6.50108e-14
-5.48282e-18
-3.4933e-17
-2.15729e-16
-8.03084e-16
-1.44696e-15
-1.15173e-15
-3.8142e-16
1.55889e-16
4.57181e-16
1.72223e-15
3.02788e-15
3.39976e-15
3.0678e-15
1.88368e-15
7.20298e-16
3.48264e-16
3.70529e-16
4.24119e-16
5.07513e-16
8.0887e-16
2.57359e-15
1.10116e-14
5.78387e-14
-8.62938e-19
-4.94262e-18
-2.712e-17
-8.7318e-17
-1.34707e-16
-8.1868e-17
-1.90132e-17
6.00396e-18
3.68117e-17
1.16989e-16
1.72403e-16
1.828e-16
1.48296e-16
7.68238e-17
2.42251e-17
1.05631e-17
1.13531e-17
1.48744e-17
3.98147e-17
2.59634e-16
1.98358e-15
1.22684e-14
1.18389e-13
-9.16617e-20
-4.47268e-19
-2.07434e-18
-5.5683e-18
-7.15571e-18
-3.23405e-18
5.34213e-20
5.23937e-19
1.95215e-18
4.67302e-18
6.71465e-18
7.15963e-18
6.08219e-18
3.58179e-18
1.31646e-18
4.80417e-19
5.94566e-19
2.05555e-18
1.8699e-17
1.92989e-16
1.84718e-15
1.84325e-14
2.25688e-13
-6.84627e-21
-3.04907e-20
-1.19719e-19
-2.91741e-19
-4.18362e-19
-2.70938e-19
-1.81511e-20
2.19335e-20
6.53586e-20
1.13247e-19
1.99289e-19
2.3672e-19
2.28996e-19
1.55619e-19
5.66891e-20
2.42207e-20
8.40398e-20
9.40685e-19
1.14976e-17
1.23185e-16
1.60307e-15
2.53384e-14
3.45397e-13
-7.56093e-22
-4.25796e-21
-1.94377e-20
-5.58247e-20
-9.68107e-20
-6.33531e-20
-3.88773e-21
1.44912e-21
1.81799e-21
2.17849e-21
4.76731e-21
6.39585e-21
6.11119e-21
3.97708e-21
1.26896e-21
2.74063e-21
3.32859e-20
4.67566e-19
5.80006e-18
6.52111e-17
1.2428e-15
2.98502e-14
4.26083e-13
-9.82397e-23
-5.54664e-22
-2.66584e-21
-8.14828e-21
-1.50616e-20
-7.95926e-21
2.89213e-22
1.58053e-22
1.09094e-22
9.67501e-23
1.18062e-22
1.12956e-22
9.05174e-23
5.35276e-23
5.51596e-23
7.64575e-22
1.32487e-20
1.91998e-19
2.52679e-18
2.91038e-17
8.1204e-16
3.10635e-14
4.53546e-13
-6.44863e-24
-3.64402e-23
-1.83768e-22
-5.92587e-22
-1.09903e-21
2.3568e-22
1.89946e-22
1.1374e-23
7.07451e-24
5.28489e-24
3.47022e-24
1.52363e-24
2.89907e-25
6.21139e-25
1.20932e-23
2.57594e-22
4.45004e-21
7.15519e-20
9.76332e-19
1.12174e-17
4.47279e-16
2.32991e-14
3.80598e-13
-7.49355e-27
-1.57184e-26
-1.15196e-26
9.10728e-27
1.47261e-23
1.69449e-22
1.44147e-23
2.18908e-25
1.17108e-25
1.28702e-25
1.21394e-25
6.62099e-26
1.77047e-26
1.5371e-25
3.5811e-24
7.17094e-23
1.39812e-21
2.44171e-20
3.42686e-19
3.90678e-18
2.08345e-16
1.40101e-14
2.65305e-13
-6.21957e-30
-9.93638e-30
-7.02736e-30
-1.24144e-30
1.4812e-31
5.75412e-30
1.10115e-29
1.26751e-28
3.30133e-28
2.48474e-28
1.12823e-28
9.25741e-29
1.13163e-27
3.3977e-26
8.26691e-25
1.91218e-23
4.07913e-22
7.72432e-21
1.10581e-19
1.23928e-18
8.51099e-17
8.05414e-15
1.84639e-13
-1.62268e-44
-2.87437e-42
-9.25278e-41
-1.74222e-50
5.21231e-39
8.84676e-35
1.83622e-32
2.17311e-31
8.45731e-31
1.68262e-30
2.51609e-30
9.17962e-30
2.64463e-28
7.18655e-27
1.91823e-25
4.76545e-24
1.10901e-22
2.24844e-21
3.28351e-20
3.58401e-19
3.15055e-17
4.32686e-15
1.16811e-13
3.65032e-48
-9.92501e-69
-3.79652e-57
3.37649e-45
2.92425e-42
7.05229e-39
6.63349e-35
3.21701e-33
1.76039e-32
3.91055e-32
7.18015e-32
1.29388e-30
4.5047e-29
1.4023e-27
4.08944e-26
1.10872e-24
2.76561e-23
5.8706e-22
8.72289e-21
9.33944e-20
1.07752e-17
2.25931e-15
6.88667e-14
1.66137e-50
8.68118e-51
1.2737e-50
-3.95835e-46
8.15216e-45
1.34057e-41
2.15577e-37
1.70009e-35
1.0562e-34
3.09953e-34
4.68936e-33
2.14407e-31
7.52693e-30
2.54715e-28
8.11449e-27
2.36672e-25
6.16157e-24
1.33512e-22
1.9895e-21
2.06124e-20
3.56694e-18
1.1129e-15
3.80244e-14
9.58112e-52
2.88748e-50
-2.15393e-52
2.34591e-50
9.47396e-46
1.69677e-42
9.40068e-41
4.37964e-39
2.38602e-37
1.27995e-35
7.17791e-34
2.89144e-32
1.14588e-30
4.26548e-29
1.45985e-27
4.49652e-26
1.18774e-24
2.59769e-23
3.68686e-22
3.25047e-21
1.20054e-18
5.11736e-16
1.91955e-14
3.08418e-53
1.95113e-52
1.54296e-52
1.29589e-51
5.41839e-48
8.03391e-44
9.73563e-42
5.22973e-40
3.09893e-38
1.77158e-36
7.97872e-35
3.61078e-33
1.58862e-31
6.42372e-30
2.29873e-28
7.28835e-27
1.93153e-25
4.07731e-24
4.7434e-23
5.03529e-22
4.22369e-19
2.19249e-16
8.70587e-15
9.6187e-55
1.77028e-55
4.06022e-55
-8.62398e-52
1.11249e-47
4.77998e-45
4.3282e-43
3.85473e-41
2.59597e-39
1.45041e-37
7.96137e-36
4.09701e-34
1.92721e-32
8.32687e-31
3.01293e-29
9.74026e-28
2.50696e-26
3.63349e-25
3.25594e-24
2.58035e-22
1.54698e-19
8.68073e-17
3.4635e-15
2.52851e-56
2.46732e-57
1.51034e-56
4.88338e-54
7.07249e-49
2.76636e-46
3.00761e-44
2.37642e-42
1.7463e-40
1.21067e-38
7.38885e-37
3.92466e-35
1.96182e-33
8.767e-32
3.15703e-30
9.85922e-29
1.48883e-27
1.63748e-26
1.34341e-24
1.14163e-22
5.27636e-20
3.08172e-17
1.16945e-15
4.65404e-58
6.82719e-60
4.43191e-58
1.8595e-55
2.83337e-50
1.19729e-47
1.38645e-45
1.30908e-43
1.09679e-41
8.10793e-40
5.48362e-38
3.12054e-36
1.58039e-34
7.1743e-33
2.38674e-31
3.40424e-30
5.42688e-29
5.0412e-27
4.57813e-25
3.83678e-23
1.57074e-20
9.44689e-18
3.18489e-16
7.59146e-60
0
2.92311e-60
-1.04974e-56
5.72815e-52
4.17899e-49
5.44572e-47
5.87663e-45
5.47986e-43
4.32619e-41
3.18671e-39
1.91399e-37
9.83533e-36
4.14125e-34
5.31019e-33
1.04586e-31
1.10622e-29
1.1536e-27
1.07392e-25
9.12395e-24
3.75568e-21
2.25942e-18
6.6522e-17
-7.73995e-61
-1.39279e-58
-2.70435e-75
8.10747e-59
2.03658e-53
1.15449e-50
1.69896e-48
2.06624e-46
2.06891e-44
1.71661e-42
1.34115e-40
8.86064e-39
4.56106e-37
1.06835e-35
1.07908e-34
1.20062e-32
1.47183e-30
1.62449e-28
1.59078e-26
1.40755e-24
5.55487e-22
3.74785e-19
1.06954e-17
-6.38416e-61
-1.01828e-58
-2.45468e-57
-5.11364e-63
4.49818e-55
2.32681e-52
3.61679e-50
4.70782e-48
5.43459e-46
5.09785e-44
4.28487e-42
3.32538e-40
1.40984e-38
9.11494e-38
5.76802e-36
8.29791e-34
1.11193e-31
1.33156e-29
1.41472e-27
1.33931e-25
3.88099e-23
4.09383e-20
1.34708e-18
-3.00496e-61
-3.50882e-59
-1.12931e-57
-1.41878e-56
1.39443e-57
2.59186e-54
4.99954e-52
7.27485e-50
8.92107e-48
1.038e-45
9.85249e-44
7.1985e-42
3.33262e-40
2.04587e-39
1.90207e-37
3.12526e-35
4.68655e-33
6.27006e-31
7.47848e-29
7.8248e-27
1.58722e-24
2.93943e-21
1.28518e-19
-8.10342e-62
-5.81354e-60
-1.73196e-58
-2.46465e-57
5.27041e-62
1.46377e-56
2.99232e-54
5.06485e-52
8.85241e-50
1.15681e-47
1.05398e-45
9.98352e-44
3.90113e-42
2.79546e-41
4.31186e-39
8.31972e-37
1.44208e-34
2.2306e-32
3.04578e-30
5.24941e-28
1.16107e-24
1.41964e-22
8.00549e-21
-5.00394e-65
-6.98971e-64
-5.42531e-63
0
7.57711e-65
1.31864e-59
4.10418e-57
1.00058e-54
1.77323e-52
2.83148e-50
3.89213e-48
8.02087e-47
2.23021e-45
5.63201e-43
1.47083e-40
3.43765e-38
7.17954e-36
1.33082e-33
2.52478e-31
1.19921e-27
2.98055e-25
6.99937e-24
2.76156e-22
-1.32287e-65
-1.25906e-64
-8.31285e-64
-1.93616e-64
2.10169e-75
1.00963e-63
2.83199e-61
2.05676e-58
2.45209e-56
2.18341e-55
5.09627e-54
1.20627e-51
6.03387e-49
2.79211e-46
1.15929e-43
4.32618e-41
1.45467e-38
4.389e-36
3.97285e-33
1.31451e-28
3.09184e-26
3.88463e-25
2.30742e-24
-4.59052e-68
-3.71674e-67
-3.72807e-66
-2.95838e-65
-2.10169e-75
3.91707e-71
6.3703e-68
9.2346e-66
7.52938e-64
7.48214e-62
2.25184e-59
1.82847e-56
1.56152e-53
1.2058e-50
8.35732e-48
5.22086e-45
2.95108e-42
1.51333e-39
7.0159e-37
6.00695e-33
5.61977e-29
2.4611e-27
8.62651e-27
-3.41788e-86
1.06419e-85
5.44759e-87
-1.35162e-86
-9.28737e-82
-3.27527e-81
-5.86681e-82
-1.3768e-79
-1.68628e-76
-2.42715e-73
-3.54532e-70
-4.82355e-67
-5.87874e-64
-6.33479e-61
-6.02422e-58
-5.06433e-55
-3.76812e-52
-2.47399e-49
-1.41127e-46
1.55875e-36
8.6494e-32
1.18804e-29
5.98167e-29
-9.45392e-87
-1.46245e-86
-8.66307e-86
-1.28862e-101
-1.89622e-98
-7.25904e-99
-2.69782e-98
-2.02294e-97
2.15022e-90
-4.38398e-90
-1.96546e-86
4.10949e-80
-4.14567e-79
-7.1073e-75
8.74188e-70
-3.00579e-68
-7.14664e-65
8.31968e-60
-2.82068e-58
7.61673e-50
1.92593e-42
4.10436e-38
9.33632e-37
0.99954
0.999542
0.9997
0.999987
0.999999
0.999706
0.999853
0.999997
1
0.999997
0.999995
0.999998
1
1
1
0.999999
0.999855
0.99978
0.999999
0.999999
0.159232
0.231391
0.332357
0.491759
-1.62831e-10
-2.60947e-10
-1.46747e-10
0.00146625
-3.0553e-09
-5.65208e-09
-1.44686e-08
-1.23549e-08
6.24594e-10
6.85054e-10
9.25762e-10
8.89986e-10
5.84638e-09
8.05498e-09
9.21619e-09
9.21089e-09
4.3539e-09
8.14719e-09
9.15889e-09
9.20713e-09
5.65232e-12
5.73927e-12
5.87806e-12
6.07278e-12
8.75278e-12
9.54232e-12
1.04176e-11
1.13592e-11
1.27145e-12
1.24744e-12
1.2689e-12
1.33676e-12
1.18199e-13
1.76998e-13
2.70802e-13
4.03679e-13
1.35949e-13
2.38953e-13
4.18614e-13
6.94034e-13
3.04104e-13
5.57592e-13
9.87636e-13
1.6796e-12
5.971e-13
1.11731e-12
1.98563e-12
3.54894e-12
9.23618e-13
1.7294e-12
3.07012e-12
5.5948e-12
1.14377e-12
2.12748e-12
3.83468e-12
6.6854e-12
1.21918e-12
2.25707e-12
4.14297e-12
6.80456e-12
1.04215e-12
1.94209e-12
3.90997e-12
6.57237e-12
7.60947e-13
1.54601e-12
3.6855e-12
7.20825e-12
5.76295e-13
1.34423e-12
3.87195e-12
9.63656e-12
4.17579e-13
1.16892e-12
4.09055e-12
1.1182e-11
2.86471e-13
9.51825e-13
3.30728e-12
8.94554e-12
1.81471e-13
6.54388e-13
1.86699e-12
3.60919e-12
1.01471e-13
3.48649e-13
8.14526e-13
1.39586e-12
4.81927e-14
1.43474e-13
2.75527e-13
4.17543e-13
1.87736e-14
4.55449e-14
7.19599e-14
9.4819e-14
5.89473e-15
1.16945e-14
1.51512e-14
1.42451e-14
1.39633e-15
2.44527e-15
3.32621e-15
2.84132e-15
2.6153e-16
5.08255e-16
1.09185e-15
1.49678e-15
4.18576e-17
1.20329e-16
5.91591e-16
1.06358e-15
5.61078e-18
2.74663e-17
2.60946e-16
5.67182e-16
5.68612e-19
3.56869e-18
5.54251e-17
1.5263e-16
3.75262e-20
2.34164e-19
5.93806e-18
2.14643e-17
1.21179e-21
4.12686e-21
3.17421e-19
1.57978e-18
9.07379e-24
9.89385e-24
1.82387e-21
5.11582e-21
1.79853e-29
2.13814e-27
2.41623e-25
-4.17602e-23
1.91143e-32
1.42464e-35
5.24483e-33
-1.66492e-25
3.86301e-39
0
3.3206e-49
-2.45701e-33
0.768225
0.00379973
3.29648e-06
6.42645e-07
6.60566e-07
6.60414e-07
8.64268e-07
1.01152e-06
5.34866e-07
2.19977e-06
1.17003e-07
3.10019e-07
-9.37196e-06
0.000462589
0.233107
0.873831
0.999302
0.999714
0.997638
0.965955
0.184626
1.90729e-05
9.64985e-07
5.26202e-07
7.89218e-07
7.60016e-07
4.0318e-07
1.96636e-07
1.05272e-07
1.03792e-07
-2.33138e-06
2.99827e-05
0.221568
0.895944
0.998986
0.999716
0.999747
0.898949
0.999999
0.825971
0.0314001
1.10887e-05
1.83554e-06
1.43192e-07
2.72663e-07
1.64604e-07
1.1631e-07
1.04299e-07
1.02445e-07
-2.836e-07
0.26012
0.946761
0.998824
0.999664
0.999747
0.999747
0.835814
0.999999
0.999999
0.794231
0.187535
4.94474e-05
-1.42423e-06
5.09301e-07
3.19473e-07
2.0646e-07
1.20302e-07
1.01213e-07
0.133439
0.817436
0.996663
0.998764
0.999388
0.999711
0.99975
0.834825
0.999999
0.999999
0.999992
0.938434
0.603152
0.140692
4.241e-05
6.40907e-06
1.22668e-06
3.01938e-07
0.11964
0.74417
0.989971
0.992855
0.996657
0.998761
0.994462
0.999706
0.833721
0.795802
0.999875
0.99918
0.998373
0.996823
0.916196
0.672814
0.436378
0.417795
0.537191
0.852849
0.989176
0.989189
0.989957
0.896433
0.899302
0.979683
0.993951
0.833644
0.0270477
0.136358
0.372459
0.665704
0.897465
0.921039
0.92104
0.913284
0.919464
0.936855
0.949331
0.956912
0.875795
0.614734
0.614805
0.754298
0.993235
0.993852
0.851018
-3.59511e-09
-3.74826e-10
-5.29475e-08
0.0236868
0.109541
0.282623
0.456364
0.570757
0.597436
0.598825
0.588747
0.46954
0.249982
0.250007
0.695289
0.936724
0.958221
0.956225
0.88213
6.62667e-11
-2.87535e-09
-8.94576e-09
4.12703e-07
1.8478e-05
0.000106126
0.00262568
0.0167557
0.027119
0.0382556
0.0562184
0.0727611
0.423174
0.881434
0.881568
0.826313
0.372443
0.287439
0.763202
5.33428e-09
3.87533e-10
5.21054e-11
-5.97571e-09
-3.4948e-07
9.72887e-07
1.00887e-05
6.86323e-05
0.000385654
0.00207631
0.00753906
0.0336701
0.474121
0.811361
0.880557
0.611365
0.0746853
0.0719694
0.196214
7.25303e-09
1.7041e-09
5.45306e-11
1.17909e-11
4.49347e-10
4.03306e-08
7.98199e-07
1.17628e-05
6.86388e-05
0.000386206
0.00277343
0.0360305
0.0638317
0.129622
0.456764
0.61362
0.153473
0.0673969
0.0655404
6.17074e-12
7.39516e-12
9.68262e-12
9.6729e-12
1.17262e-11
2.42955e-09
4.82168e-08
6.58271e-07
9.5986e-06
0.000263911
0.00395295
0.00773002
6.65405e-05
0.000419352
0.00762066
0.281364
0.429127
0.300317
0.0655404
1.33693e-11
1.70864e-11
1.74657e-11
1.51724e-11
1.44768e-11
4.91311e-11
2.75526e-09
1.08666e-07
2.36745e-06
0.000310178
0.00138923
6.59995e-05
1.27534e-05
8.18562e-06
0.000239459
0.0893728
0.435978
0.4374
0.0919946
1.67092e-12
2.8931e-12
6.47981e-12
1.12843e-11
1.72026e-11
1.85006e-11
4.80918e-10
2.59774e-08
7.86886e-06
0.000176282
7.22968e-05
1.25646e-05
8.93463e-06
6.2547e-07
-6.88656e-07
9.7753e-06
0.221162
0.436314
0.437269
8.03553e-13
2.6431e-12
7.67745e-12
1.41471e-11
2.24101e-11
2.19393e-11
9.51551e-11
1.373e-08
2.98365e-06
3.25597e-06
1.66445e-05
8.5737e-06
6.90894e-06
9.06439e-07
7.16048e-08
-8.77657e-08
1.01624e-05
0.397079
0.436587
1.59675e-12
4.94943e-12
2.69944e-11
7.4146e-11
5.59674e-11
5.8653e-11
6.71254e-11
4.15206e-09
1.27514e-07
5.98346e-07
3.31442e-06
2.24199e-06
2.47807e-06
1.98613e-07
6.12629e-08
7.15313e-08
0.00339191
0.0220049
0.357176
4.02144e-12
1.11418e-11
4.63392e-11
3.21503e-10
4.38843e-10
2.40412e-10
2.12028e-10
9.54191e-10
4.20653e-09
1.02572e-07
6.26586e-07
3.00838e-07
5.08553e-08
5.08654e-08
5.08752e-08
1.3565e-07
0.00221665
0.00680614
0.0637907
7.78409e-12
4.67992e-11
6.99064e-11
3.92422e-10
1.14699e-09
4.94121e-10
2.36673e-10
2.41454e-10
6.86286e-10
1.68927e-08
1.18052e-07
5.97456e-08
5.69021e-08
5.05346e-08
5.63982e-08
1.61108e-06
3.44756e-05
0.0443132
0.13563
1.14705e-11
1.0031e-10
1.33766e-10
2.64131e-10
1.18463e-09
5.04024e-10
2.36703e-10
2.36703e-10
3.20607e-10
2.9932e-09
2.2956e-08
1.94229e-08
4.81676e-08
5.68943e-08
8.19535e-07
1.61649e-05
0.000210963
0.0429382
0.198027
1.44728e-11
1.34211e-10
2.53745e-10
2.3133e-10
7.34691e-10
8.37059e-10
2.36702e-10
2.41437e-10
2.65678e-10
7.24725e-10
5.12517e-09
1.00838e-08
1.90236e-08
1.81913e-07
6.71044e-05
0.00134818
0.00104883
0.00564742
0.199056
2.86956e-11
1.27495e-10
6.16248e-10
2.42082e-10
6.15149e-10
1.06158e-08
1.32332e-08
6.20607e-10
3.89357e-10
4.75807e-10
1.5083e-09
3.40126e-09
6.42167e-09
2.15413e-07
8.57704e-05
0.00474085
0.0144199
0.00724753
0.199471
7.53717e-11
2.66479e-10
9.15333e-10
2.42954e-10
3.29209e-09
2.85172e-08
2.92087e-08
7.72116e-09
7.99559e-10
4.92162e-10
6.56769e-10
1.4258e-09
7.21794e-08
1.41236e-06
2.04436e-05
0.00491007
0.108491
0.0195563
0.212715
1.09002e-10
2.48757e-10
7.28944e-10
8.01572e-10
5.80512e-09
2.92087e-08
2.92536e-08
2.70061e-08
2.80546e-09
4.49382e-10
1.07476e-09
1.19948e-09
1.54468e-08
2.40535e-06
4.58625e-07
0.0125766
0.149242
0.151242
0.213025
1.01638e-10
3.02875e-10
3.15492e-10
2.54285e-09
5.51356e-09
2.44672e-08
2.92407e-08
2.47851e-08
2.79032e-09
4.04039e-10
8.86996e-09
1.39141e-09
1.52821e-09
4.81263e-07
4.46131e-07
0.0378149
0.154998
0.202756
0.204781
3.79277e-11
2.41791e-10
1.27139e-10
4.18063e-09
5.8211e-09
7.76141e-09
2.13056e-08
1.71754e-08
2.40481e-09
3.6726e-10
2.96411e-09
1.52821e-09
8.13598e-07
4.49857e-07
4.66896e-07
0.0825258
0.149242
0.144986
0.0792414
2.2253e-11
1.11207e-10
1.06314e-10
4.81631e-09
5.79234e-09
1.17883e-09
1.76121e-09
7.45778e-09
1.13752e-09
3.60374e-10
3.6726e-10
1.32028e-06
1.453e-06
5.16605e-07
4.76606e-07
0.0969374
0.142062
0.0723287
0.0766438
1.12983e-11
5.32253e-11
1.05801e-10
3.5271e-09
4.87362e-09
2.79088e-10
3.34003e-10
4.37964e-10
3.60332e-10
3.61748e-10
3.60406e-10
1.6185e-06
1.20092e-06
4.84334e-07
5.01407e-07
0.0771912
0.138453
0.0660143
0.0850235
4.9658e-12
2.60774e-11
1.96195e-10
9.11153e-10
2.48594e-09
2.4407e-11
1.90588e-07
9.96476e-10
4.37964e-10
3.61501e-10
4.2699e-10
1.61858e-06
5.45263e-07
4.78007e-07
4.83414e-07
0.0523808
0.130629
0.0651765
0.1038
1.96289e-12
1.1356e-11
1.19503e-10
1.80379e-10
5.78372e-10
1.26723e-11
1.28815e-05
1.70267e-05
2.46414e-05
1.60654e-05
7.29196e-06
7.96614e-07
4.77767e-07
4.76252e-07
4.76211e-07
0.0506305
0.126273
0.0650942
0.103863
7.46535e-13
3.44258e-12
1.88568e-11
6.9405e-11
2.34036e-10
1.20491e-11
1.26226e-05
2.88074e-05
2.86782e-05
2.85491e-05
1.03523e-05
4.88114e-07
4.76334e-07
4.75368e-07
4.74921e-07
0.0683555
0.118429
0.0650942
0.103879
4.01815e-13
2.19916e-12
7.81127e-12
3.4242e-11
1.80747e-10
1.17773e-11
3.51285e-06
2.88074e-05
1.9439e-05
5.69986e-06
2.15705e-06
4.82943e-07
4.7609e-07
4.75866e-07
4.75126e-07
0.0930809
0.124053
0.0652682
0.103947
3.77549e-13
2.20722e-12
6.58277e-12
2.1805e-11
8.58827e-11
1.1675e-11
1.1777e-11
2.01107e-05
1.41991e-05
7.22614e-07
5.07094e-07
4.78948e-07
4.75895e-07
4.7609e-07
0.00100797
0.113666
0.124053
0.0658619
0.103947
4.87727e-13
3.31833e-12
7.92455e-12
1.25185e-11
1.93619e-11
1.16617e-11
1.1675e-11
1.55541e-07
2.27539e-05
5.30093e-05
0.00010932
2.95304e-05
4.78944e-07
4.76028e-07
0.0025571
0.118172
0.124053
0.0644294
0.0489735
5.16134e-13
4.25621e-12
1.13108e-11
1.44114e-11
1.19634e-11
1.16642e-11
1.53479e-08
1.70525e-08
1.23734e-06
0.000233653
0.000247272
0.000251173
4.89093e-05
6.2955e-07
3.75003e-06
0.0849667
0.124035
0.0565685
0.0402978
3.2236e-13
3.6923e-12
1.29687e-11
3.04725e-11
6.01231e-11
1.17895e-11
4.58651e-08
2.88502e-08
2.54339e-08
0.000126589
0.000250588
0.000250864
0.00025078
4.38219e-05
5.20879e-06
0.0455551
0.123199
0.0531248
0.0402466
1.02062e-13
2.28193e-12
1.12709e-11
2.39001e-11
3.49893e-10
9.49524e-09
3.79492e-08
3.2419e-08
4.47317e-09
3.5219e-08
0.000139201
0.000250588
0.00024906
5.57501e-05
1.84797e-06
0.0135522
0.120935
0.0564186
0.0402082
1.30704e-14
7.30782e-13
7.17984e-12
2.90626e-11
4.62645e-10
5.73209e-09
6.94271e-09
1.28991e-08
2.13164e-09
2.43067e-09
9.07856e-07
8.07171e-05
8.10568e-05
2.70721e-05
2.20517e-07
4.79187e-08
0.0844998
0.0614667
0.0401694
6.58522e-16
1.71343e-13
3.57495e-12
1.52177e-11
2.93839e-11
1.56582e-10
1.9515e-09
8.71737e-09
1.40554e-09
6.79548e-10
1.71953e-08
1.23017e-07
1.36829e-07
1.51134e-06
5.56231e-07
6.5457e-09
0.041244
0.0543818
0.040215
2.26732e-18
5.86841e-15
3.31515e-13
3.44656e-12
1.57608e-11
5.8844e-11
6.29668e-10
5.59484e-09
1.24473e-09
1.12616e-09
-3.97187e-10
3.30125e-09
3.85832e-09
3.60271e-09
2.54797e-08
2.80991e-09
0
0.0539742
0.0691647
2.57309e-21
1.47556e-17
6.99146e-15
2.09463e-13
4.25189e-12
7.16597e-11
3.20712e-10
9.99451e-11
2.95689e-10
2.29049e-10
2.33655e-12
1.12116e-11
2.68623e-10
1.27738e-09
-1.56856e-25
-1.09274e-09
-5.09733e-09
0.0782857
0.0831452
-1.17422e-26
4.60129e-23
1.39248e-17
1.58575e-14
4.5082e-13
1.49891e-12
2.76359e-18
1.80499e-21
3.71868e-13
2.1862e-13
1.83729e-14
2.48543e-16
2.88457e-10
3.76494e-09
3.58713e-09
5.03027e-10
-1.20758e-09
0.0415083
0.0829537
-9.4527e-33
9.89716e-30
2.55122e-23
2.22185e-19
5.54228e-18
4.40012e-40
5.48138e-18
3.39963e-22
6.96589e-41
1.27468e-16
3.56977e-14
1.73888e-16
2.92171e-34
3.79594e-09
8.67001e-09
1.02483e-09
-1.2059e-10
6.593e-19
0.0548784
)
;

boundaryField
{
    leftWall
    {
        type            zeroGradient;
    }
    rightWall
    {
        type            zeroGradient;
    }
    lowerWall
    {
        type            zeroGradient;
    }
    atmosphere
    {
        type            inletOutlet;
        inletValue      uniform 0;
        value           nonuniform List<scalar> 
46
(
0
0
0
0
0
0
0
0
0
0
0
0
0
0
0
0
0
0
0
0
0
0
0
0
0
0
0
0
0
0
0
0
0
0
0
0
0
0
0
0
0
0
0
-1.2059e-10
6.593e-19
0.0548784
)
;
    }
    defaultFaces
    {
        type            empty;
    }
}


// ************************************************************************* //
