/*--------------------------------*- C++ -*----------------------------------*\
| =========                 |                                                 |
| \\      /  F ield         | OpenFOAM: The Open Source CFD Toolbox           |
|  \\    /   O peration     | Version:  v2012                                 |
|   \\  /    A nd           | Website:  www.openfoam.com                      |
|    \\/     M anipulation  |                                                 |
\*---------------------------------------------------------------------------*/
FoamFile
{
    version     2.0;
    format      ascii;
    class       volScalarField;
    location    "0.55";
    object      epsilon;
}
// * * * * * * * * * * * * * * * * * * * * * * * * * * * * * * * * * * * * * //

dimensions      [0 2 -3 0 0 0 0];


internalField   nonuniform List<scalar> 
2268
(
0.0292948
0.0853871
0.152373
0.212119
0.257865
0.297369
0.330971
0.360941
0.388271
0.4133
0.435915
0.45568
0.471766
0.482694
0.485372
0.480445
0.464557
0.433696
0.387505
0.328465
0.268244
0.207445
0.170769
0.0361701
0.0568109
0.0850023
0.111655
0.132653
0.149208
0.163295
0.175964
0.187723
0.198755
0.209047
0.218476
0.226833
0.233822
0.239047
0.243859
0.247924
0.250434
0.250775
0.246979
0.235282
0.191643
0.189467
0.0437358
0.0526433
0.0739151
0.0934791
0.10866
0.12072
0.130942
0.140143
0.148744
0.156914
0.164678
0.172003
0.178832
0.18512
0.190914
0.196982
0.203745
0.211409
0.220085
0.228396
0.231271
0.215872
0.279679
0.0457438
0.053185
0.0702691
0.0857948
0.0982494
0.108369
0.117064
0.124957
0.132377
0.139466
0.146264
0.152785
0.159053
0.16513
0.171207
0.177873
0.185716
0.195239
0.206724
0.219217
0.229264
0.237544
0.381782
0.0488379
0.0550809
0.0686995
0.0812821
0.0918355
0.100803
0.108757
0.116095
0.123034
0.129674
0.136062
0.142242
0.14829
0.154334
0.160619
0.167669
0.1761
0.186518
0.19929
0.213957
0.229447
0.257794
0.483661
0.051411
0.0573505
0.0679296
0.0780084
0.087075
0.0953036
0.102914
0.110065
0.116857
0.123348
0.129588
0.135648
0.141642
0.147736
0.154202
0.161525
0.170322
0.181245
0.194773
0.211041
0.231373
0.277129
0.589284
0.0524808
0.0592468
0.0672236
0.075234
0.0832253
0.0910386
0.09855
0.105708
0.112516
0.119003
0.125224
0.131275
0.137296
0.14348
0.150109
0.157645
0.1667
0.177957
0.192041
0.209697
0.234371
0.295125
0.695961
0.0513501
0.059984
0.0660103
0.0726851
0.080116
0.0877926
0.0953476
0.102596
0.109479
0.116013
0.122264
0.12835
0.13443
0.140716
0.147494
0.155211
0.164478
0.176005
0.190574
0.209445
0.237554
0.309784
0.859156
0.503129
0.944663
1.15853
1.58402
2.35333
3.84623
6.17345
9.99825
14.8569
15.8737
14.9543
13.2979
11.9145
11.2263
10.559
9.67327
8.57883
6.5865
2.49292
0.522619
0.758643
1.19504
2.377
4.14183
6.71189
10.4664
13.2073
13.0645
11.9056
12.3404
12.3076
9.61562
7.04823
5.70206
5.02756
4.7237
3.46579
1.76106
0.720435
0.94838
1.58232
2.95432
4.67141
7.34361
11.249
13.8507
14.5007
15.526
18.472
17.6365
9.88996
5.34445
3.7657
3.25722
2.83546
2.03158
1.89793
0.844141
1.1661
2.00002
3.2498
4.81079
7.60413
12.694
16.485
18.6557
20.9931
22.6856
18.7131
11.9081
5.93287
3.0401
2.04106
1.61359
1.35132
2.01482
0.853405
1.31063
2.37992
3.4546
4.75571
7.35856
11.9277
16.5407
19.875
21.9444
21.1111
17.4211
12.314
6.31777
2.5836
1.13245
0.907842
1.05607
2.10736
0.748637
1.07437
2.42377
3.53555
4.56255
6.62143
10.1514
14.154
17.0118
17.8049
16.1143
13.5749
10.0017
5.1808
1.81053
0.681907
0.710058
0.96156
2.19173
0.691412
0.705907
1.84135
3.42532
4.29559
5.88141
8.40634
11.2892
13.2587
13.3859
11.7055
9.67761
6.68142
3.05013
0.742349
0.584184
0.668675
0.949028
2.2591
0.701811
0.634528
1.81783
3.18438
3.9975
5.25043
7.04804
9.01599
10.2756
10.1256
8.65468
6.57198
3.61563
1.09731
0.538215
0.553126
0.670585
0.955921
2.30259
0.0483049
0.0582022
0.0633977
0.0696575
0.0769139
0.0845736
0.0922044
0.0995554
0.106522
0.113101
0.119374
0.125493
0.131639
0.138049
0.145019
0.152993
0.162574
0.174509
0.189796
0.210194
0.240723
0.303384
0.50646
0.0470208
0.0516009
0.0594543
0.0677522
0.0757942
0.0837
0.0914061
0.0987794
0.105746
0.112316
0.118605
0.12477
0.130971
0.137511
0.144696
0.152998
0.162998
0.175437
0.191471
0.212588
0.241654
0.288361
0.377579
0.115312
0.0726634
0.067221
0.0714814
0.0777316
0.0847509
0.0919922
0.0991115
0.105934
0.112423
0.118993
0.12586
0.132222
0.139121
0.146821
0.155549
0.165711
0.178545
0.195321
0.21631
0.242499
0.277687
0.324396
0.317117
0.165745
0.144565
0.138983
0.134417
0.131115
0.129632
0.129719
0.130848
0.132297
0.132401
0.128885
0.133007
0.139446
0.147314
0.157251
0.16951
0.185261
0.20328
0.222654
0.245691
0.274393
0.305853
0.345563
0.181427
0.165581
0.160035
0.155682
0.152347
0.150427
0.149943
0.150712
0.152403
0.154345
0.156295
0.160307
0.16529
0.168899
0.164667
0.170734
0.186956
0.20756
0.229901
0.255037
0.281042
0.305587
0.327516
0.182371
0.16686
0.163321
0.161698
0.160904
0.161056
0.162278
0.16458
0.167818
0.171625
0.175777
0.180736
0.186322
0.191615
0.195842
0.20273
0.21146
0.213574
0.230758
0.256552
0.285232
0.311262
0.312
0.17705
0.162307
0.16026
0.160793
0.162336
0.164726
0.168021
0.172262
0.177379
0.18317
0.189471
0.196411
0.203899
0.21151
0.219036
0.227348
0.236781
0.246741
0.260914
0.27764
0.290449
0.312072
0.301527
0.17156
0.156255
0.154528
0.156238
0.159394
0.163553
0.168644
0.174671
0.181604
0.189343
0.197794
0.206964
0.216762
0.226884
0.237063
0.247557
0.258777
0.271005
0.285237
0.301559
0.318606
0.338423
0.296293
0.166637
0.149885
0.147735
0.14983
0.153864
0.159172
0.165559
0.172977
0.1814
0.190781
0.201063
0.212199
0.224073
0.236446
0.249058
0.261885
0.275137
0.289033
0.303925
0.320147
0.337752
0.356892
0.292987
0.16173
0.143468
0.14059
0.142562
0.146894
0.152778
0.159929
0.16825
0.177707
0.188271
0.199899
0.212524
0.226012
0.240148
0.254687
0.269499
0.284611
0.30011
0.316151
0.332998
0.350848
0.369655
0.289756
0.156647
0.137103
0.13342
0.134982
0.139206
0.145208
0.152647
0.161393
0.171401
0.182648
0.195098
0.20868
0.223264
0.238652
0.254615
0.270976
0.287646
0.304604
0.321895
0.339664
0.358047
0.377078
0.286044
0.151443
0.130857
0.126406
0.127413
0.131271
0.137054
0.144398
0.153154
0.163273
0.174734
0.187512
0.201546
0.216723
0.23287
0.249782
0.267265
0.285172
0.303406
0.321931
0.340791
0.360066
0.379875
0.280288
0.145952
0.124729
0.119643
0.12007
0.123408
0.128746
0.135713
0.144155
0.154021
0.165301
0.177984
0.192029
0.207352
0.223817
0.241251
0.259471
0.278311
0.297632
0.317343
0.337413
0.357881
0.378898
0.272328
0.140209
0.118767
0.113202
0.113085
0.115855
0.120614
0.127006
0.134905
0.144248
0.155043
0.167298
0.181001
0.196104
0.212519
0.230116
0.248745
0.268249
0.288481
0.309317
0.330679
0.352568
0.375131
0.26261
0.134364
0.113056
0.107158
0.106555
0.108759
0.112895
0.118619
0.125807
0.134448
0.144552
0.156146
0.169251
0.183863
0.199947
0.217428
0.236204
0.256154
0.277144
0.299045
0.32175
0.345229
0.369603
0.251854
0.128621
0.107702
0.101586
0.100559
0.102223
0.105735
0.110765
0.117197
0.125025
0.134303
0.145097
0.157445
0.171391
0.186955
0.204128
0.222868
0.243104
0.264739
0.287655
0.311738
0.336933
0.363325
0.240834
0.123198
0.102816
0.0965605
0.0951619
0.096323
0.0992363
0.103585
0.109262
0.116273
0.12468
0.134584
0.146103
0.159293
0.174239
0.190996
0.209594
0.230022
0.252235
0.276145
0.301644
0.328657
0.35723
0.230254
0.118305
0.0985071
0.0921491
0.0904154
0.0911109
0.0934617
0.0971646
0.102122
0.108347
0.115916
0.124948
0.135591
0.148006
0.162306
0.178616
0.197035
0.217628
0.240408
0.265329
0.292301
0.321235
0.352129
0.220701
0.114124
0.0948729
0.0884111
0.0863589
0.0866183
0.0884455
0.0915491
0.0958387
0.101333
0.108123
0.116345
0.126177
0.137818
0.151486
0.16737
0.185635
0.20642
0.229807
0.255804
0.284341
0.315319
0.348682
0.21262
0.110805
0.0919953
0.0853936
0.0830187
0.0828595
0.0841973
0.0867488
0.0904277
0.0952589
0.101342
0.108834
0.117939
0.128896
0.141975
0.157464
0.175635
0.196681
0.220759
0.247935
0.278171
0.311353
0.347369
0.206332
0.108465
0.0899362
0.0831285
0.0804068
0.079833
0.0807067
0.0827484
0.0858725
0.0901069
0.09556
0.102405
0.110871
0.12124
0.133833
0.149002
0.16711
0.188505
0.21338
0.241871
0.273974
0.309565
0.348472
0.20204
0.107181
0.0887341
0.0816299
0.0785197
0.0775221
0.0779469
0.0795128
0.0821311
0.0858298
0.090723
0.0969982
0.104911
0.114779
0.126979
0.141931
0.160078
0.18185
0.207612
0.237564
0.271722
0.309958
0.352048
0.199846
0.106994
0.088402
0.0808917
0.0773371
0.0758952
0.0758764
0.0769917
0.0791446
0.0823592
0.0867527
0.0925244
0.0999528
0.109394
0.121276
0.136091
0.154366
0.176625
0.203327
0.234796
0.271191
0.312312
0.357913
0.19977
0.107911
0.0889269
0.0808869
0.0768219
0.074907
0.0744424
0.075124
0.0768427
0.0796146
0.0835563
0.088876
0.095873
0.104938
0.116554
0.131281
0.149738
0.172552
0.200288
0.233367
0.272002
0.316193
0.365627
0.201774
0.109903
0.0902692
0.0815678
0.0769209
0.0744996
0.073582
0.0738412
0.0751492
0.07751
0.0810354
0.0859391
0.0925377
0.101255
0.112623
0.127274
0.145922
0.169302
0.198099
0.232842
0.273827
0.321097
0.37449
0.205777
0.112913
0.0923654
0.0828679
0.0775669
0.0746053
0.073226
0.0730706
0.0739863
0.0759594
0.0790931
0.0836019
0.0898158
0.0981865
0.109293
0.123839
0.142629
0.166517
0.196316
0.232683
0.276019
0.326442
0.383852
0.211686
0.116861
0.0951312
0.0847049
0.0786815
0.0751493
0.0733013
0.0727389
0.0732776
0.0748813
0.0776389
0.0817614
0.0875863
0.0955882
0.106387
0.12075
0.139574
0.163832
0.194476
0.232307
0.277856
0.331347
0.39277
0.219398
0.121647
0.0984673
0.0869861
0.0801797
0.0760532
0.0737345
0.0727749
0.072952
0.0742014
0.076593
0.080328
0.0857455
0.0933346
0.103748
0.117808
0.136495
0.160901
0.192122
0.23112
0.278583
0.334876
0.40012
0.228794
0.127161
0.102267
0.0896138
0.0819743
0.0772389
0.0744543
0.073112
0.0729451
0.0738554
0.0758883
0.0792289
0.0842103
0.0913269
0.101252
0.114849
0.133172
0.157419
0.188834
0.228554
0.277453
0.336071
0.404704
0.239738
0.13329
0.106423
0.0924919
0.0839805
0.078632
0.0753946
0.0736904
0.0732014
0.0737901
0.0754719
0.0784098
0.0829219
0.0894968
0.0988137
0.111761
0.129443
0.15315
0.184266
0.224113
0.273775
0.334009
0.40532
0.25208
0.139935
0.110838
0.0955302
0.0861195
0.0801646
0.0764968
0.0744587
0.0736748
0.0739638
0.075306
0.0778353
0.0818464
0.0878098
0.0963939
0.108489
0.125225
0.147956
0.178186
0.21742
0.266977
0.327866
0.400839
0.265719
0.147017
0.115425
0.0986479
0.0883209
0.0817772
0.0777111
0.075375
0.0743299
0.074347
0.0753667
0.0774885
0.0809746
0.0862651
0.0939994
0.105045
0.120523
0.141815
0.17051
0.208276
0.256674
0.317003
0.390302
0.280701
0.154499
0.120116
0.101774
0.0905234
0.0834203
0.0789983
0.0764083
0.0751429
0.0749221
0.0756441
0.0773691
0.0803198
0.0848934
0.0916831
0.101507
0.115442
0.134848
0.161344
0.196721
0.242763
0.301079
0.37304
0.297328
0.1624
0.124859
0.104847
0.0926738
0.0850542
0.0803307
0.0775405
0.0761027
0.0756848
0.0761421
0.0774929
0.0799147
0.0837527
0.0895377
0.0980145
0.110179
0.127314
0.151004
0.183082
0.225507
0.280183
0.348843
0.316275
0.170817
0.129616
0.107806
0.0947237
0.086649
0.0816944
0.0787684
0.0772136
0.0766458
0.0768788
0.0778898
0.0798087
0.0829219
0.0876862
0.0947534
0.105006
0.119601
0.140006
0.168003
0.205614
0.254973
0.318166
0.338743
0.179945
0.134348
0.110577
0.0966228
0.0881842
0.0830913
0.0801084
0.0785
0.0778348
0.07789
0.0786059
0.0800659
0.0824953
0.0862702
0.0919369
0.100242
0.112176
0.129023
0.152396
0.184242
0.22677
0.282333
0.366779
0.190103
0.138978
0.11305
0.0983085
0.089648
0.0845442
0.0816023
0.0800127
0.0793064
0.0792342
0.0797066
0.0807662
0.0825792
0.0854401
0.0897853
0.0962163
0.105535
0.11879
0.137338
0.162889
0.197522
0.243642
0.404171
0.201777
0.143302
0.115018
0.0996885
0.0910392
0.0861051
0.0833273
0.0818387
0.0811502
0.0810012
0.0812847
0.0820109
0.0832936
0.0853501
0.0885103
0.0932327
0.100128
0.109998
0.123887
0.14315
0.169527
0.205184
0.459076
0.215552
0.146734
0.116077
0.100622
0.0923769
0.0878702
0.0854108
0.0841139
0.083502
0.0833245
0.0834721
0.0839341
0.0847813
0.0861631
0.0883125
0.0915564
0.0963298
0.103199
0.1129
0.126391
0.144941
0.170223
0.553307
0.231332
0.147664
0.11547
0.100923
0.0937326
0.0900081
0.0880502
0.0870395
0.0865584
0.086395
0.0864544
0.0867174
0.0872233
0.0880649
0.0893917
0.0914159
0.0944201
0.0987685
0.104926
0.11349
0.125253
0.141292
0.769255
0.24384
0.142064
0.112021
0.10048
0.0953182
0.092808
0.0915398
0.0908986
0.0905918
0.0904762
0.0904878
0.0906099
0.0908605
0.0912881
0.0919734
0.0930322
0.0946195
0.0969335
0.100222
0.104794
0.111049
0.119532
1.61824
0.217288
0.121896
0.104778
0.0996647
0.0976595
0.0967457
0.0962982
0.0960746
0.0959667
0.0959229
0.0959204
0.0959522
0.0960231
0.0961478
0.0963511
0.0966695
0.0971521
0.097861
0.0988725
0.100278
0.102189
0.104753
1.12037
0.889415
0.716539
0.637842
0.464739
0.474195
0.459998
0.449301
0.354447
0.370932
0.382779
0.394929
0.325659
0.339867
0.353935
0.369184
0.321431
0.333945
0.347453
0.362506
0.328197
0.341415
0.355316
0.369789
0.328634
0.341728
0.355911
0.373228
0.353533
0.364535
0.375426
0.385569
0.37165
0.382429
0.39348
0.405
0.384056
0.394479
0.405361
0.416871
0.391667
0.402133
0.413067
0.424624
0.395088
0.405906
0.417226
0.429223
0.395086
0.406518
0.41851
0.431274
0.392583
0.404837
0.417713
0.431448
0.388556
0.401792
0.415704
0.430525
0.383967
0.398307
0.41336
0.429333
0.379705
0.395239
0.411509
0.428678
0.376554
0.393353
0.410898
0.429299
0.375169
0.3933
0.41218
0.431862
0.37606
0.395608
0.415906
0.436952
0.37956
0.400648
0.422493
0.445044
0.385794
0.408593
0.432174
0.456441
0.394637
0.419365
0.44493
0.471199
0.405687
0.432591
0.460429
0.48904
0.418254
0.447585
0.477998
0.509312
0.431415
0.463382
0.496637
0.530991
0.444294
0.479049
0.51534
0.55297
0.455597
0.493183
0.532615
0.57371
0.463902
0.504204
0.546698
0.591222
0.467746
0.510461
0.555735
0.603431
0.465708
0.510332
0.557884
0.608257
0.456512
0.502323
0.551417
0.603714
0.439156
0.485201
0.534849
0.588052
0.413093
0.458178
0.507135
0.559941
0.378476
0.421182
0.467943
0.518763
0.336465
0.375207
0.418051
0.465037
0.289476
0.322671
0.359801
0.400955
0.241187
0.267561
0.297407
0.330864
0.19595
0.214949
0.236644
0.261191
0.157565
0.169606
0.183394
0.199036
0.12803
0.134289
0.141416
0.14944
0.10727
0.109102
0.111157
0.113418
0.500336
0.532139
1.81523
2.81853
3.51192
4.41182
5.47184
6.46274
6.98408
6.70336
5.55436
3.82382
1.26377
0.50987
0.500741
0.553653
0.687366
0.970216
2.33212
0.452624
0.496422
0.610374
2.48258
2.95781
3.47844
4.06984
4.52236
4.61801
4.16633
3.13953
1.67904
0.486197
0.478751
0.509447
0.587483
0.730395
1.00134
2.38978
0.42156
0.460343
0.481766
0.58722
1.9426
2.58099
2.82871
3.0053
2.95667
2.57391
1.79483
0.510407
0.467713
0.497566
0.563366
0.65919
0.790428
1.03271
2.44695
0.399782
0.446142
0.489488
0.519289
0.549768
0.671112
1.47346
1.76218
1.69096
1.3411
0.547882
0.488219
0.515737
0.586443
0.685151
0.775538
0.861255
1.05166
2.42781
0.392042
0.43624
0.482747
0.518522
0.544079
0.562764
0.573794
0.580626
0.555552
0.520964
0.506481
0.535607
0.630191
0.785955
0.909129
0.944863
0.937292
1.05163
2.34556
0.395336
0.428209
0.467053
0.504917
0.535175
0.555248
0.567265
0.559548
0.535564
0.513268
0.531253
0.657825
0.931099
1.21715
1.29117
1.16799
1.00431
1.02391
2.19536
0.402289
0.434229
0.463939
0.491982
0.517311
0.537295
0.546978
0.540854
0.522237
0.517607
0.631826
1.09772
1.8307
2.16693
1.91874
1.38221
1.02272
0.960487
1.92111
0.404
0.434415
0.465712
0.49545
0.515976
0.529297
0.533768
0.527032
0.515341
0.574324
1.0805
2.47372
3.17954
2.83237
2.07913
1.35672
0.963263
0.887931
1.6029
0.425972
0.456463
0.4876
0.502441
0.519271
0.531946
0.538515
0.537781
0.555863
0.921698
2.45946
3.46866
3.19228
2.39684
1.62003
1.15865
0.921452
0.89375
1.2303
0.437604
0.469121
0.508153
0.556594
0.63076
0.733014
0.83689
0.886168
1.47891
3.51435
3.51073
2.87987
2.31143
1.52175
1.06737
0.906803
0.917402
1.02375
1.08465
0.445402
0.478037
0.521196
0.585012
0.693395
0.883777
1.21023
1.79753
2.92198
3.79599
3.11692
2.83363
2.0854
1.11255
0.846394
0.820131
0.896781
1.05402
0.938716
0.450892
0.486306
0.535283
0.610622
0.740153
0.979055
1.43234
2.175
3.10757
3.48913
2.99606
2.90821
2.08251
0.990084
0.839806
0.830591
0.878903
1.00459
1.01794
0.454454
0.493491
0.548794
0.635074
0.782732
1.0548
1.53842
2.27034
3.06099
3.28866
2.93258
2.76697
2.20009
1.24247
0.892363
0.853741
0.880034
0.975698
1.0956
0.456432
0.498958
0.559114
0.652
0.806611
1.07955
1.53166
2.17838
2.85554
3.10263
2.82955
2.64425
2.35249
1.86458
1.28611
0.890766
0.880349
0.940728
0.978907
0.457389
0.502765
0.565592
0.659628
0.809126
1.05646
1.44278
1.96872
2.51756
2.7927
2.6506
2.51346
2.43056
2.32602
2.11244
1.40016
0.917957
0.928247
1.00738
0.458073
0.505624
0.569149
0.660038
0.796519
1.00601
1.3156
1.71681
2.13185
2.38943
2.39108
2.40763
2.5753
2.80489
2.8058
1.92637
0.910366
0.973982
1.06456
0.459277
0.508507
0.571438
0.656797
0.777232
0.949001
1.18561
1.47861
1.77652
1.98748
2.093
2.30211
2.78633
3.45538
3.7918
2.74741
1.01887
1.10993
1.14391
0.461766
0.512434
0.574218
0.653357
0.758001
0.896961
1.07507
1.28318
1.48995
1.65847
1.8311
2.22014
3.0565
4.2679
4.9101
3.55091
1.35462
1.1643
1.18246
0.466258
0.518385
0.579093
0.652537
0.743547
0.85621
0.990737
1.13899
1.28486
1.42698
1.64686
2.17828
3.31849
4.85453
5.28076
3.20347
1.33496
1.35912
1.12188
0.473425
0.527293
0.587474
0.656509
0.736947
0.830124
0.934328
1.04374
1.15363
1.28436
1.53766
2.15645
3.38549
4.68665
4.33355
1.93037
1.10771
1.57657
1.1161
0.483858
0.540024
0.600608
0.666947
0.740106
0.819957
0.90437
0.990182
1.08054
1.20732
1.47525
2.09961
3.18519
4.07038
3.28661
1.3185
0.961161
1.52171
1.12731
0.498009
0.557324
0.619562
0.685164
0.754218
0.82584
0.898081
0.969983
1.04941
1.17218
1.4335
1.99747
2.8956
3.61748
2.70441
1.04741
0.963436
1.5618
1.15001
0.516077
0.57969
0.645132
0.712138
0.780068
0.847528
0.912755
0.976155
1.04773
1.16258
1.40223
1.89062
2.65255
3.4209
1.85212
0.848999
0.942266
1.62026
1.23458
0.537901
0.607214
0.67767
0.748399
0.818076
0.884734
0.94646
1.00409
1.06797
1.17056
1.38224
1.80952
2.51867
3.38509
1.20724
0.692087
0.843554
1.58244
1.41303
0.562866
0.639422
0.716866
0.793786
0.868095
0.937014
0.997991
1.05143
1.1069
1.19407
1.37755
1.76688
2.48996
3.35652
0.932623
0.621552
0.742728
1.40458
1.74122
0.589882
0.67515
0.76156
0.847186
0.929043
1.00327
1.06618
1.11704
1.16391
1.23397
1.39027
1.75351
2.48811
3.01203
0.815977
0.579969
0.672738
1.18819
1.90211
0.617433
0.712504
0.809645
0.906342
0.99857
1.08113
1.14889
1.19937
1.23863
1.29151
1.42042
1.75008
2.4146
2.53568
0.756552
0.5466
0.641516
1.09064
1.67578
0.644048
0.749223
0.858089
0.96788
1.07299
1.16669
1.2422
1.29498
1.32876
1.36598
1.46751
1.75234
2.29692
2.32253
0.772669
0.522646
0.641744
1.13841
1.69751
0.667388
0.782923
0.904108
1.02756
1.14762
1.25475
1.34015
1.39775
1.42826
1.45246
1.52615
1.75692
2.18667
2.1161
0.753273
0.51952
0.664718
1.26644
1.70583
0.684994
0.810512
0.944039
1.08168
1.21729
1.33955
1.43625
1.49987
1.52933
1.54232
1.58604
1.74941
2.06851
1.90623
0.69212
0.529097
0.701324
1.42199
1.73277
0.694383
0.828837
0.974041
1.12569
1.27727
1.41591
1.5259
1.59715
1.62747
1.63095
1.64109
1.72549
1.92633
1.61662
0.637648
0.553633
0.756351
1.59765
1.77724
0.693153
0.834765
0.990166
1.15492
1.32241
1.47866
1.6042
1.68536
1.71908
1.71448
1.69249
1.70241
1.79112
1.29065
0.609903
0.595172
0.81724
1.74371
1.83015
0.679114
0.825295
0.988368
1.1644
1.34694
1.52183
1.66559
1.76134
1.80023
1.79006
1.74492
1.70229
1.70235
1.20966
0.647796
0.66202
0.899772
1.85157
2.09631
0.650495
0.797803
0.964733
1.14894
1.34427
1.53831
1.70342
1.81981
1.86995
1.85639
1.80112
1.73241
1.67647
1.37183
0.774914
0.77243
1.03652
2.04594
2.48208
0.606239
0.750399
0.916187
1.10341
1.3073
1.51927
1.70867
1.85326
1.92996
1.92905
1.87679
1.79971
1.71928
1.6031
1.07371
0.949062
1.26428
2.42681
2.90092
0.54645
0.682414
0.840806
1.02338
1.22932
1.45306
1.668
1.84778
1.96767
2.00882
1.97807
1.90725
1.82153
1.75201
1.4394
1.20263
1.59619
3.00862
3.42802
0.473023
0.595178
0.739119
0.907403
1.10425
1.32797
1.56283
1.77919
1.95257
2.0597
2.08807
2.04883
1.97519
1.91392
1.92915
1.91886
2.09311
3.54638
3.92944
0.390332
0.492906
0.615209
0.759525
0.931438
1.13701
1.37363
1.61474
1.83848
2.01944
2.13558
2.17584
2.14916
2.10872
2.24245
2.71737
2.77302
4.43568
4.35978
0.305572
0.383544
0.477812
0.589767
0.723441
0.888126
1.09306
1.32753
1.57503
1.81453
2.02018
2.16705
2.23967
2.26649
2.4317
3.11345
4.50238
6.05384
4.74968
0.227703
0.278607
0.34085
0.415176
0.503592
0.61127
0.74984
0.927971
1.14092
1.3824
1.63631
1.87839
2.08375
2.2537
2.63824
3.27648
7.37731
7.47272
5.22278
0.16419
0.190052
0.221378
0.258438
0.301896
0.353684
0.418307
0.503799
0.616103
0.760473
0.938984
1.14942
1.39236
1.68563
2.19842
3.33849
9.29852
10.6444
5.90904
0.117493
0.124236
0.131918
0.140472
0.149911
0.160488
0.172925
0.188531
0.208711
0.23515
0.269795
0.315286
0.377576
0.475905
0.722094
2.1356
9.83031
11.1987
7.51522
)
;

boundaryField
{
    leftWall
    {
        lowReCorrection 0;
        blending        stepwise;
        n               2;
        type            epsilonWallFunction;
        value           nonuniform List<scalar> 
50
(
0.0292948
0.0361701
0.0437358
0.0457438
0.0488379
0.051411
0.0524808
0.0513501
0.0483049
0.0470208
0.115312
0.317117
0.345563
0.327516
0.312
0.301527
0.296293
0.292987
0.289756
0.286044
0.280288
0.272328
0.26261
0.251854
0.240834
0.230254
0.220701
0.21262
0.206332
0.20204
0.199846
0.19977
0.201774
0.205777
0.211686
0.219398
0.228794
0.239738
0.25208
0.265719
0.280701
0.297328
0.316275
0.338743
0.366779
0.404171
0.459076
0.553307
0.769255
1.61824
)
;
    }
    rightWall
    {
        lowReCorrection 0;
        blending        stepwise;
        n               2;
        type            epsilonWallFunction;
        value           nonuniform List<scalar> 
50
(
2.49292
1.76106
1.89793
2.01482
2.10736
2.19173
2.2591
2.30259
2.33212
2.38978
2.44695
2.42781
2.34556
2.19536
1.92111
1.6029
1.2303
1.08465
0.938716
1.01794
1.0956
0.978907
1.00738
1.06456
1.14391
1.18246
1.12188
1.1161
1.12731
1.15001
1.23458
1.41303
1.74122
1.90211
1.67578
1.69751
1.70583
1.73277
1.77724
1.83015
2.09631
2.48208
2.90092
3.42802
3.92944
4.35978
4.74968
5.22278
5.90904
7.51522
)
;
    }
    lowerWall
    {
        lowReCorrection 0;
        blending        stepwise;
        n               2;
        type            epsilonWallFunction;
        value           nonuniform List<scalar> 
62
(
0.0292948
0.0853871
0.152373
0.212119
0.257865
0.297369
0.330971
0.360941
0.388271
0.4133
0.435915
0.45568
0.471766
0.482694
0.485372
0.480445
0.464557
0.433696
0.387505
0.328465
0.268244
0.207445
0.170769
0.170769
0.189467
0.279679
0.381782
0.483661
0.589284
0.695961
0.859156
1.12037
0.889415
0.716539
0.637842
0.503129
0.522619
0.720435
0.844141
0.853405
0.748637
0.691412
0.701811
0.503129
0.944663
1.15853
1.58402
2.35333
3.84623
6.17345
9.99825
14.8569
15.8737
14.9543
13.2979
11.9145
11.2263
10.559
9.67327
8.57883
6.5865
2.49292
)
;
    }
    atmosphere
    {
        type            inletOutlet;
        inletValue      uniform 0.1;
        value           nonuniform List<scalar> 
46
(
0.1
0.1
0.1
0.1
0.1
0.1
0.1
0.1
0.1
0.1
0.1
0.1
0.1
0.1
0.1
0.1
0.1
0.1
0.1
0.1
0.1
0.1
0.1
0.1
0.1
0.1
0.1
0.1
0.1
0.1
0.1
0.1
0.1
0.1
0.1
0.1
0.1
0.1
0.1
0.1
0.1
0.1
0.1
9.83031
11.1987
7.51522
)
;
    }
    defaultFaces
    {
        type            empty;
    }
}


// ************************************************************************* //
