/*--------------------------------*- C++ -*----------------------------------*\
| =========                 |                                                 |
| \\      /  F ield         | OpenFOAM: The Open Source CFD Toolbox           |
|  \\    /   O peration     | Version:  v2012                                 |
|   \\  /    A nd           | Website:  www.openfoam.com                      |
|    \\/     M anipulation  |                                                 |
\*---------------------------------------------------------------------------*/
FoamFile
{
    version     2.0;
    format      ascii;
    class       volScalarField;
    location    "0.55";
    object      k;
}
// * * * * * * * * * * * * * * * * * * * * * * * * * * * * * * * * * * * * * //

dimensions      [0 2 -2 0 0 0 0];


internalField   nonuniform List<scalar> 
2268
(
0.00443997
0.00737434
0.0108312
0.0134937
0.0153582
0.0168789
0.0181221
0.0191964
0.0201509
0.0210062
0.0217648
0.022418
0.0229439
0.0232995
0.0233894
0.0232338
0.0227176
0.021695
0.0201176
0.018005
0.0157367
0.0132496
0.0116475
0.00686644
0.0146078
0.0215859
0.0269986
0.0310689
0.0341531
0.0366999
0.0389147
0.0409001
0.042698
0.0443172
0.0457486
0.0469685
0.0479298
0.0485353
0.0485918
0.0479733
0.0465727
0.0444221
0.0416044
0.0382491
0.0316315
0.020567
0.0077919
0.0178693
0.0257238
0.0320506
0.0369779
0.0409508
0.0443117
0.0472671
0.0499268
0.0523393
0.0545197
0.0564672
0.0581668
0.0595815
0.0606323
0.0611742
0.0610557
0.0601278
0.0582903
0.0554611
0.0514655
0.044497
0.0266382
0.00802173
0.0196233
0.0276263
0.0342981
0.0398137
0.0444582
0.0484846
0.0520628
0.0552906
0.0582169
0.0608638
0.0632413
0.0653479
0.0671601
0.0686174
0.0696084
0.0699947
0.0696134
0.0682651
0.0656848
0.0614197
0.0540797
0.0327701
0.00836765
0.0201741
0.0282116
0.0350748
0.0410391
0.0462681
0.0509076
0.0550686
0.0588264
0.0622283
0.065304
0.0680767
0.0705596
0.0727431
0.0745818
0.0759859
0.0768354
0.076968
0.0761334
0.0739475
0.0697615
0.0622065
0.03834
0.00864852
0.0200818
0.0279493
0.0349103
0.0412669
0.0470458
0.0522704
0.0569859
0.0612443
0.0650927
0.0685705
0.0717148
0.0745534
0.0770895
0.079289
0.0810779
0.0823532
0.0829616
0.0826387
0.0809435
0.0770964
0.0695441
0.043764
0.0087585
0.0195271
0.0270857
0.0341371
0.0408936
0.0472075
0.0529835
0.0582118
0.0629293
0.0671869
0.0710357
0.0745263
0.0777001
0.0805708
0.0831126
0.0852641
0.0869374
0.0879935
0.0881793
0.0870465
0.0837531
0.0764809
0.0489113
0.00862336
0.0185312
0.0258087
0.0330551
0.040252
0.0470709
0.0533358
0.0590094
0.0641251
0.0687413
0.0729207
0.0767266
0.0802118
0.0833978
0.0862645
0.0887619
0.090815
0.0923018
0.0929988
0.0924872
0.0899422
0.0835034
0.05635
0.0241133
0.0372848
0.0418962
0.0513414
0.0671685
0.0961006
0.136361
0.189914
0.2292
0.222008
0.208763
0.191554
0.183564
0.178267
0.172597
0.165189
0.15536
0.132989
0.0855569
0.0434459
0.0807707
0.103673
0.145214
0.192527
0.249327
0.325775
0.374169
0.360243
0.334315
0.340816
0.347944
0.314353
0.262215
0.250951
0.246732
0.242335
0.200764
0.0972084
0.0534332
0.109905
0.14932
0.203116
0.25399
0.320315
0.410409
0.467224
0.476761
0.495954
0.59615
0.640869
0.46681
0.333809
0.283136
0.26031
0.24018
0.18955
0.1024
0.0589983
0.13241
0.191296
0.245275
0.296985
0.375665
0.503091
0.590495
0.636366
0.704838
0.811978
0.771421
0.592115
0.396505
0.294202
0.249358
0.211095
0.174499
0.106349
0.0590544
0.139378
0.225921
0.280886
0.329913
0.41324
0.537543
0.65216
0.733995
0.813439
0.852135
0.795006
0.641822
0.426804
0.283103
0.208559
0.18443
0.167472
0.109436
0.0540689
0.103938
0.229652
0.305623
0.35261
0.429881
0.538925
0.647018
0.725324
0.769278
0.767644
0.716798
0.584336
0.38717
0.244898
0.171216
0.170099
0.168143
0.112244
0.0524135
0.0669071
0.181433
0.313285
0.364904
0.436718
0.52702
0.613145
0.670727
0.689329
0.665913
0.602678
0.463004
0.291619
0.175672
0.162573
0.167749
0.170734
0.114766
0.052971
0.0575758
0.183388
0.309224
0.367894
0.436311
0.512189
0.578578
0.617522
0.619254
0.578616
0.485417
0.323836
0.188014
0.155567
0.159278
0.170274
0.173869
0.116513
0.0082772
0.0167135
0.0238775
0.0315712
0.0393707
0.0467964
0.0536326
0.0598332
0.0654334
0.0705016
0.0751199
0.0793687
0.0833084
0.0869707
0.09034
0.0933605
0.0959897
0.0981335
0.0996363
0.100161
0.0989771
0.0946153
0.0789454
0.00815501
0.0140201
0.0220732
0.0308572
0.0392945
0.0471104
0.0542629
0.0607677
0.0666784
0.0720672
0.0770292
0.0816605
0.0859901
0.0900879
0.093958
0.097579
0.100907
0.10381
0.106265
0.107996
0.108281
0.106254
0.0999712
0.0152132
0.0191506
0.0248725
0.0324611
0.040248
0.0477049
0.0546451
0.0610165
0.0668389
0.0721685
0.0773438
0.0826762
0.0874378
0.0920603
0.0965007
0.1006
0.104289
0.107739
0.111106
0.113912
0.1154
0.115256
0.112813
0.0292068
0.0483585
0.0580465
0.0651043
0.0702822
0.074685
0.0787852
0.0826292
0.0860491
0.0886354
0.089303
0.0854113
0.0881372
0.092346
0.0967863
0.101413
0.105917
0.110567
0.114825
0.118029
0.120177
0.121386
0.12108
0.0307842
0.0558884
0.0695592
0.0784521
0.0845762
0.0894563
0.0937219
0.0975989
0.101113
0.104144
0.106419
0.107954
0.110512
0.113077
0.113703
0.107105
0.106847
0.111116
0.115961
0.119891
0.12314
0.125325
0.12609
0.0297205
0.0583901
0.0738665
0.0843452
0.0920265
0.0982122
0.103541
0.108335
0.112744
0.116794
0.120412
0.123622
0.126742
0.129487
0.131116
0.130903
0.131246
0.130599
0.121207
0.120714
0.123493
0.126118
0.127511
0.0288058
0.0587684
0.0753703
0.0869737
0.0959268
0.103328
0.109775
0.115614
0.121039
0.126129
0.130877
0.135272
0.13938
0.143073
0.146044
0.148127
0.149726
0.150503
0.149433
0.149067
0.146855
0.134057
0.129203
0.0281773
0.0585764
0.075586
0.0878484
0.0976471
0.105954
0.113315
0.120062
0.126399
0.132431
0.138185
0.143659
0.148861
0.153716
0.158039
0.161691
0.164742
0.167167
0.168846
0.170141
0.170467
0.168639
0.167628
0.0278639
0.0581084
0.0751663
0.0877062
0.0979583
0.106832
0.114829
0.12226
0.129322
0.136129
0.142731
0.149137
0.155332
0.161257
0.166789
0.171799
0.176244
0.180125
0.183427
0.186203
0.188376
0.189856
0.191069
0.0276608
0.0575164
0.0743807
0.0869072
0.0973053
0.106452
0.114818
0.122693
0.130265
0.13765
0.144905
0.152046
0.159051
0.165861
0.172375
0.178478
0.184095
0.1892
0.19378
0.197844
0.201417
0.204535
0.207233
0.0274608
0.056801
0.0732955
0.0856189
0.0959469
0.105142
0.113651
0.121752
0.129624
0.13738
0.145082
0.152747
0.160353
0.167841
0.175121
0.182086
0.188651
0.194764
0.200393
0.205532
0.210208
0.214458
0.218296
0.0272261
0.055916
0.0719494
0.0839362
0.094052
0.103137
0.111615
0.119758
0.127741
0.135676
0.143625
0.15161
0.159611
0.167574
0.175416
0.183038
0.190349
0.197279
0.203779
0.209825
0.215426
0.220609
0.225421
0.0268578
0.054824
0.0703673
0.0819722
0.0917824
0.100627
0.108942
0.116983
0.12492
0.132865
0.140886
0.149007
0.157217
0.165468
0.173686
0.181781
0.189663
0.197249
0.204477
0.211305
0.217722
0.223746
0.229443
0.0263445
0.0535374
0.0685862
0.0797939
0.0892615
0.0978041
0.105851
0.113668
0.121437
0.129255
0.1372
0.145303
0.153561
0.161938
0.170372
0.178782
0.187083
0.195191
0.203031
0.210547
0.217709
0.224526
0.231067
0.025712
0.0521033
0.0666674
0.0774803
0.0865912
0.0948001
0.102531
0.110049
0.117538
0.125125
0.13288
0.140843
0.14902
0.15739
0.165906
0.174502
0.183099
0.191615
0.199974
0.208106
0.215967
0.223551
0.23092
0.0250035
0.0505874
0.0646855
0.0751162
0.083871
0.0917335
0.0991225
0.106304
0.113462
0.120731
0.128205
0.135937
0.143938
0.152202
0.160698
0.169377
0.178173
0.187011
0.195813
0.204506
0.21303
0.221367
0.229562
0.0242676
0.0490618
0.0627195
0.072786
0.0811939
0.0887097
0.0957476
0.102574
0.109376
0.116293
0.123428
0.130854
0.138615
0.146703
0.155108
0.163797
0.172722
0.181817
0.191009
0.200221
0.209385
0.218464
0.227486
0.0235509
0.0475975
0.0608457
0.0705693
0.0786439
0.0858203
0.0925086
0.0989753
0.105412
0.111964
0.118743
0.125834
0.133295
0.141164
0.149433
0.158088
0.167097
0.176408
0.185955
0.195661
0.20545
0.215269
0.225121
0.0228943
0.0462592
0.0591337
0.068537
0.0762939
0.0831423
0.0894889
0.0956012
0.101675
0.107862
0.114283
0.121033
0.128188
0.135801
0.143905
0.152502
0.161572
0.171078
0.180965
0.191156
0.201568
0.212132
0.222823
0.0223314
0.0451017
0.0576429
0.0667492
0.0742043
0.080737
0.0867527
0.0925206
0.0982404
0.104071
0.110141
0.116559
0.123413
0.130776
0.138699
0.147219
0.156344
0.166042
0.176268
0.18695
0.197998
0.209324
0.220874
0.0218879
0.0441689
0.0564206
0.065253
0.0724215
0.0786507
0.0843467
0.0897815
0.0951592
0.100645
0.106377
0.112476
0.119044
0.12617
0.133926
0.142369
0.151533
0.16143
0.172007
0.183199
0.194908
0.207029
0.219473
0.0215817
0.0434924
0.0555006
0.0640821
0.0709778
0.0769141
0.0823005
0.0874128
0.0924603
0.0976146
0.103023
0.108818
0.115114
0.122019
0.129624
0.138008
0.147226
0.157309
0.168246
0.179971
0.192376
0.205334
0.218727
0.0214227
0.0430915
0.0549036
0.063256
0.069891
0.0755431
0.080628
0.0854268
0.0901541
0.0949882
0.100086
0.105588
0.111627
0.118323
0.125791
0.134128
0.143416
0.153703
0.164998
0.177257
0.19039
0.20423
0.218633
0.0214138
0.0429737
0.0546367
0.0627805
0.0691652
0.0745399
0.0793294
0.0838212
0.0882356
0.0927578
0.0975524
0.102772
0.108561
0.115057
0.122393
0.13069
0.140051
0.150552
0.162217
0.175016
0.188858
0.203608
0.219083
0.0215519
0.043136
0.0546952
0.0626489
0.068792
0.0738945
0.0783929
0.082582
0.0866883
0.090903
0.095399
0.100339
0.105879
0.112174
0.119373
0.127622
0.137048
0.14775
0.159777
0.173112
0.187668
0.203305
0.219857
0.02183
0.0435665
0.0550637
0.0628436
0.0687524
0.0735868
0.0777972
0.0816865
0.0854869
0.0893956
0.0935926
0.0982495
0.103535
0.109616
0.116662
0.124839
0.134299
0.145168
0.157519
0.171354
0.186596
0.203104
0.220713
0.0222387
0.0442465
0.0557181
0.063338
0.0690188
0.0735889
0.0775142
0.0811058
0.0846013
0.0882029
0.0920965
0.0964616
0.101477
0.107323
0.114184
0.122246
0.131687
0.142659
0.155264
0.169524
0.185379
0.202696
0.221317
0.0227672
0.0451523
0.0566283
0.0640994
0.0695579
0.0738677
0.0775115
0.080808
0.0839993
0.0872912
0.0908743
0.0949341
0.0996574
0.105235
0.111866
0.119753
0.129097
0.140079
0.152828
0.167397
0.183744
0.201754
0.221284
0.0234031
0.0462573
0.0577604
0.0650913
0.070333
0.0743877
0.0777548
0.0807603
0.0836491
0.086629
0.0898932
0.0936312
0.0980354
0.103305
0.109648
0.117282
0.12643
0.137297
0.150045
0.164758
0.181425
0.199954
0.220227
0.0241331
0.0475335
0.0590802
0.0662774
0.0713077
0.0751136
0.0782109
0.0809315
0.0835215
0.0861887
0.0891263
0.0925253
0.0965807
0.101496
0.107485
0.114778
0.123609
0.134211
0.146777
0.161427
0.178188
0.197002
0.21778
0.024943
0.0489551
0.0605566
0.0676242
0.0724486
0.076013
0.0788493
0.0812935
0.0835914
0.0859482
0.0885543
0.0915989
0.0952764
0.0997904
0.105358
0.11221
0.120595
0.130762
0.142935
0.157276
0.173856
0.192659
0.213634
0.0258228
0.0505026
0.0621655
0.0691054
0.0737281
0.0770589
0.0796442
0.0818231
0.0838388
0.0858913
0.0881655
0.090845
0.0941199
0.0981898
0.103268
0.109585
0.117389
0.126942
0.138494
0.152248
0.168327
0.186767
0.207563
0.0267725
0.052169
0.0638949
0.0707048
0.0751278
0.0782318
0.0805769
0.0825035
0.08425
0.086009
0.0879565
0.0902672
0.0931225
0.0967138
0.101245
0.106939
0.114038
0.122804
0.133503
0.146377
0.161602
0.179278
0.199453
0.027808
0.0539666
0.06575
0.0724209
0.0766413
0.0795228
0.0816375
0.0833254
0.0848184
0.0862991
0.0879317
0.0898785
0.0923081
0.0953992
0.0993424
0.104344
0.110633
0.118459
0.128093
0.139799
0.153807
0.170284
0.189343
0.0289668
0.055935
0.0677591
0.074271
0.078278
0.0809357
0.0828271
0.0842894
0.0855458
0.0867671
0.088103
0.0897002
0.0917107
0.0942964
0.0976299
0.101897
0.107303
0.114075
0.122471
0.13276
0.145208
0.160048
0.177466
0.0303146
0.0581537
0.0699834
0.0762975
0.0800662
0.0824902
0.0841599
0.0854072
0.0864443
0.0874276
0.0884906
0.0897613
0.0913725
0.0934654
0.0961911
0.0997112
0.104202
0.109859
0.116907
0.1256
0.136213
0.149021
0.164284
0.03196
0.0607659
0.07253
0.0785742
0.0820572
0.0842234
0.0856654
0.0867043
0.0875379
0.088306
0.0891236
0.0900986
0.0913419
0.0929718
0.0951154
0.0979076
0.101493
0.10603
0.111701
0.118719
0.127334
0.13783
0.150511
0.0340978
0.0640211
0.0755705
0.0812113
0.084325
0.0861906
0.087389
0.0882213
0.0888652
0.0894407
0.0900428
0.0907579
0.0916739
0.092885
0.0944927
0.0966046
0.099334
0.102802
0.107142
0.112516
0.119121
0.127203
0.137058
0.0371332
0.0683496
0.0793542
0.0843491
0.08696
0.0884608
0.0893909
0.090015
0.0904815
0.0908869
0.0913039
0.0917974
0.0924321
0.0932781
0.0944111
0.0959121
0.097865
0.100356
0.103476
0.107333
0.112058
0.117829
0.124882
0.0420969
0.0744792
0.0841844
0.0881209
0.0900449
0.0911056
0.0917429
0.0921587
0.0924615
0.0927192
0.0929813
0.0932913
0.0936921
0.0942307
0.0949583
0.0959305
0.0972041
0.0988361
0.100883
0.103407
0.106481
0.11021
0.114743
0.0525714
0.0835266
0.0902451
0.0925529
0.0936138
0.0941852
0.0945244
0.0947436
0.094902
0.0950361
0.0951728
0.0953354
0.0955476
0.0958352
0.0962272
0.0967554
0.0974526
0.0983508
0.0994803
0.100871
0.102555
0.10458
0.107015
0.0868967
0.0960525
0.0970076
0.0973957
0.0976116
0.0977432
0.0978275
0.097885
0.0979282
0.0979663
0.0980063
0.0980549
0.0981192
0.0982072
0.0983281
0.0984921
0.09871
0.0989922
0.0993482
0.0997863
0.100314
0.100943
0.101691
0.0676025
0.0579975
0.050314
0.046783
0.0938117
0.0886816
0.0850171
0.0836133
0.109737
0.107207
0.10515
0.104134
0.119735
0.118534
0.117434
0.116766
0.12577
0.12543
0.125162
0.12517
0.128153
0.128658
0.129273
0.130042
0.128925
0.129162
0.129616
0.13065
0.166521
0.164927
0.161687
0.155288
0.191392
0.191245
0.190586
0.189421
0.208786
0.209699
0.210457
0.211116
0.220835
0.222501
0.224113
0.225718
0.228772
0.231017
0.233257
0.235545
0.23351
0.23625
0.239023
0.24189
0.235807
0.239004
0.242262
0.245652
0.236319
0.239956
0.243674
0.247544
0.235618
0.239687
0.243849
0.248167
0.2342
0.238696
0.243289
0.24803
0.232492
0.23741
0.242423
0.247565
0.230854
0.236191
0.241616
0.247147
0.229576
0.235337
0.241176
0.247093
0.228875
0.235075
0.241341
0.24766
0.228873
0.235541
0.242267
0.249024
0.229587
0.236764
0.243998
0.251249
0.230915
0.238651
0.246451
0.254265
0.232638
0.240981
0.249407
0.25786
0.234441
0.243426
0.252528
0.261683
0.235994
0.245635
0.255436
0.265331
0.236866
0.247144
0.257639
0.268289
0.236606
0.24746
0.258598
0.269962
0.234785
0.246107
0.257786
0.269768
0.231025
0.242661
0.254725
0.26717
0.225033
0.236781
0.249025
0.261724
0.216634
0.22825
0.24042
0.253111
0.20581
0.217009
0.228809
0.241182
0.192745
0.20321
0.214307
0.226012
0.177886
0.187277
0.197313
0.207969
0.161979
0.16997
0.178583
0.1878
0.146069
0.152401
0.159284
0.166709
0.13135
0.135918
0.140913
0.146331
0.118869
0.121781
0.124963
0.128407
0.109198
0.110728
0.112385
0.114155
0.102348
0.102804
0.10329
0.103793
0.0577577
0.0741947
0.200367
0.300151
0.360214
0.423405
0.482663
0.525631
0.542538
0.526729
0.467359
0.357768
0.195074
0.149396
0.151617
0.160569
0.174663
0.177523
0.117816
0.0863606
0.0995176
0.113334
0.279143
0.329944
0.375207
0.417169
0.442733
0.442781
0.409141
0.335824
0.229163
0.145111
0.14655
0.153717
0.167401
0.182979
0.18352
0.120323
0.104549
0.111429
0.120425
0.139938
0.258859
0.312822
0.333555
0.345707
0.33898
0.307063
0.248253
0.147719
0.143305
0.150611
0.1641
0.180395
0.193293
0.188879
0.122257
0.116887
0.121618
0.129912
0.137911
0.146403
0.162588
0.233948
0.256447
0.249236
0.222522
0.153634
0.147457
0.154084
0.168265
0.186047
0.199713
0.204185
0.19191
0.121611
0.12599
0.129977
0.136353
0.143154
0.149338
0.154371
0.158108
0.160335
0.156722
0.152548
0.151063
0.158283
0.176637
0.202479
0.220893
0.223823
0.213365
0.19117
0.118822
0.131589
0.134699
0.139672
0.145681
0.151419
0.156013
0.159316
0.158819
0.155097
0.151959
0.157071
0.180769
0.223581
0.261693
0.269265
0.248727
0.216726
0.184351
0.11355
0.133072
0.13699
0.141507
0.146399
0.151178
0.155239
0.157586
0.156985
0.154062
0.154077
0.174055
0.239668
0.326821
0.36015
0.327
0.261042
0.207888
0.169586
0.10347
0.139989
0.138176
0.142137
0.147644
0.151779
0.154785
0.156228
0.155472
0.15364
0.163088
0.228541
0.368374
0.434026
0.39284
0.319142
0.239741
0.186392
0.150306
0.0911457
0.187121
0.186873
0.184417
0.15893
0.154053
0.155759
0.157418
0.157603
0.159278
0.204262
0.342417
0.436598
0.40847
0.331995
0.251726
0.196105
0.165865
0.136835
0.0759102
0.212227
0.214735
0.21753
0.218387
0.225785
0.23762
0.240714
0.219818
0.254991
0.396477
0.415738
0.36968
0.316565
0.231755
0.171647
0.14344
0.135293
0.116639
0.0695809
0.228518
0.233243
0.239662
0.249195
0.266376
0.29427
0.330929
0.372985
0.432941
0.451591
0.390404
0.365117
0.28976
0.173562
0.129735
0.116813
0.113913
0.110749
0.0633581
0.239585
0.246381
0.255903
0.27016
0.293024
0.329226
0.382162
0.44301
0.485506
0.456556
0.395067
0.37829
0.289683
0.149229
0.1173
0.11123
0.110838
0.110016
0.0674391
0.246997
0.25568
0.267835
0.285763
0.313211
0.355242
0.413349
0.476865
0.512738
0.473544
0.411185
0.383022
0.317973
0.184893
0.118403
0.109961
0.10944
0.107222
0.069088
0.251703
0.261966
0.276063
0.2964
0.326315
0.369955
0.426686
0.486409
0.52133
0.493773
0.432963
0.406217
0.370442
0.29741
0.194353
0.111654
0.108785
0.104928
0.0649382
0.254428
0.2659
0.281219
0.302575
0.33262
0.37401
0.425188
0.477124
0.509686
0.496731
0.450657
0.427832
0.415479
0.392597
0.339701
0.207802
0.109085
0.106374
0.0663719
0.25579
0.268151
0.284039
0.305259
0.333677
0.370498
0.413952
0.456163
0.483254
0.479853
0.45496
0.44879
0.46314
0.473329
0.434474
0.277149
0.124184
0.110292
0.0686966
0.256315
0.269319
0.285299
0.305627
0.331463
0.363014
0.398123
0.430668
0.451155
0.452475
0.446157
0.463154
0.509297
0.554035
0.531858
0.358972
0.139259
0.118696
0.0724163
0.256457
0.269941
0.285735
0.304803
0.327759
0.354223
0.381915
0.406056
0.420711
0.424561
0.431924
0.470434
0.547499
0.625531
0.61075
0.42121
0.156938
0.121872
0.0738061
0.256612
0.270495
0.286002
0.303752
0.323981
0.346019
0.367746
0.385575
0.396237
0.402036
0.418632
0.471539
0.567636
0.652457
0.608693
0.373066
0.162071
0.133494
0.071195
0.257126
0.271409
0.286671
0.303261
0.321179
0.339681
0.356978
0.370546
0.379005
0.386538
0.408254
0.466146
0.55895
0.612922
0.504132
0.250836
0.15804
0.148085
0.0704195
0.258293
0.273058
0.288225
0.303946
0.320087
0.335949
0.350135
0.360995
0.368347
0.376931
0.399745
0.453199
0.526415
0.545889
0.404058
0.193252
0.151364
0.157934
0.0708617
0.260328
0.275735
0.291052
0.306274
0.32119
0.335189
0.347227
0.356285
0.362813
0.371256
0.391883
0.435581
0.490109
0.500367
0.344012
0.165671
0.152214
0.175268
0.0722227
0.263336
0.279622
0.295409
0.310556
0.324783
0.337548
0.348056
0.355677
0.361092
0.3681
0.384616
0.418405
0.461324
0.478119
0.255597
0.147078
0.150804
0.187837
0.0773016
0.267276
0.28474
0.30138
0.316921
0.330993
0.34305
0.352421
0.358661
0.362452
0.366966
0.378681
0.404852
0.443775
0.468167
0.187684
0.131529
0.141929
0.185174
0.0851211
0.271944
0.290917
0.308835
0.32528
0.339748
0.351605
0.360173
0.365031
0.366754
0.368076
0.37499
0.396128
0.436125
0.456779
0.157669
0.124521
0.131706
0.170073
0.0969044
0.276973
0.297769
0.317393
0.335276
0.350726
0.362939
0.371115
0.374737
0.374224
0.372047
0.374304
0.391528
0.431707
0.424267
0.146222
0.119875
0.123302
0.150811
0.100612
0.281861
0.30471
0.326427
0.346266
0.363302
0.37649
0.384823
0.387602
0.385065
0.379522
0.377325
0.390067
0.423452
0.387678
0.140837
0.114581
0.11716
0.139466
0.0917227
0.28609
0.311047
0.335092
0.357344
0.376542
0.391346
0.400495
0.403047
0.399048
0.390719
0.384605
0.392495
0.416318
0.377973
0.143526
0.109463
0.114111
0.138587
0.0932153
0.288977
0.31605
0.342549
0.367414
0.389281
0.406305
0.416889
0.419926
0.41519
0.404943
0.3955
0.398195
0.413175
0.366337
0.14271
0.108175
0.115062
0.144671
0.0935894
0.289841
0.318882
0.347815
0.37543
0.400221
0.419985
0.432575
0.436709
0.432018
0.420594
0.408018
0.403999
0.408834
0.348201
0.135827
0.109869
0.118929
0.154071
0.0947088
0.288049
0.318741
0.349903
0.380225
0.40809
0.431004
0.446253
0.45218
0.44833
0.436408
0.420475
0.407839
0.399168
0.313049
0.12995
0.114099
0.125266
0.165581
0.0964909
0.28306
0.314907
0.347879
0.380651
0.411562
0.437914
0.456418
0.46486
0.46265
0.450952
0.43221
0.411171
0.387997
0.263771
0.127765
0.120026
0.132358
0.176198
0.0986099
0.274465
0.306792
0.3409
0.375627
0.409294
0.43917
0.461387
0.473218
0.473205
0.462395
0.442614
0.416684
0.383031
0.25382
0.13223
0.127018
0.14055
0.18513
0.105284
0.262042
0.294021
0.328334
0.364222
0.400007
0.433218
0.45943
0.475503
0.478698
0.469433
0.450364
0.423391
0.38658
0.292774
0.146244
0.136579
0.152213
0.197961
0.119726
0.245805
0.276487
0.309903
0.34575
0.382621
0.418562
0.448776
0.469831
0.47833
0.472961
0.4563
0.430638
0.395261
0.33823
0.183314
0.150825
0.170117
0.221492
0.133316
0.226077
0.254428
0.28567
0.319886
0.356462
0.39377
0.427571
0.453941
0.469369
0.471328
0.459834
0.437571
0.405583
0.360478
0.239072
0.171882
0.195133
0.25644
0.149336
0.203581
0.228541
0.25629
0.287086
0.321326
0.357899
0.39392
0.42505
0.447819
0.459105
0.457029
0.441827
0.414935
0.37679
0.321623
0.228128
0.230528
0.291814
0.16487
0.179559
0.200104
0.223119
0.248869
0.278068
0.311061
0.346458
0.380238
0.409152
0.429773
0.439181
0.435534
0.418089
0.389726
0.36073
0.294772
0.274674
0.342514
0.178621
0.155814
0.171114
0.188374
0.207756
0.229809
0.255709
0.285883
0.318058
0.349478
0.377019
0.397306
0.407231
0.404493
0.390419
0.377252
0.373468
0.358896
0.415564
0.192746
0.134471
0.144226
0.15523
0.167568
0.181542
0.197864
0.217927
0.242131
0.269061
0.29701
0.323339
0.344891
0.358759
0.364188
0.379239
0.384576
0.487822
0.478409
0.203664
0.117247
0.122053
0.127317
0.133079
0.139453
0.146737
0.15554
0.166757
0.180849
0.197835
0.217109
0.237454
0.257806
0.278074
0.308424
0.358312
0.563257
0.593194
0.220817
0.10464
0.105834
0.107018
0.108199
0.109399
0.110669
0.11212
0.113927
0.116282
0.119385
0.123435
0.128624
0.135067
0.142507
0.153537
0.225135
0.585469
0.602625
0.258105
)
;

boundaryField
{
    leftWall
    {
        type            kqRWallFunction;
        value           nonuniform List<scalar> 
50
(
0.00443997
0.00686644
0.0077919
0.00802173
0.00836765
0.00864852
0.0087585
0.00862336
0.0082772
0.00815501
0.0152132
0.0292068
0.0307842
0.0297205
0.0288058
0.0281773
0.0278639
0.0276608
0.0274608
0.0272261
0.0268578
0.0263445
0.025712
0.0250035
0.0242676
0.0235509
0.0228943
0.0223314
0.0218879
0.0215817
0.0214227
0.0214138
0.0215519
0.02183
0.0222387
0.0227672
0.0234031
0.0241331
0.024943
0.0258228
0.0267725
0.027808
0.0289668
0.0303146
0.03196
0.0340978
0.0371332
0.0420969
0.0525714
0.0868967
)
;
    }
    rightWall
    {
        type            kqRWallFunction;
        value           nonuniform List<scalar> 
50
(
0.0855569
0.0972084
0.1024
0.106349
0.109436
0.112244
0.114766
0.116513
0.117816
0.120323
0.122257
0.121611
0.118822
0.11355
0.10347
0.0911457
0.0759102
0.0695809
0.0633581
0.0674391
0.069088
0.0649382
0.0663719
0.0686966
0.0724163
0.0738061
0.071195
0.0704195
0.0708617
0.0722227
0.0773016
0.0851211
0.0969044
0.100612
0.0917227
0.0932153
0.0935894
0.0947088
0.0964909
0.0986099
0.105284
0.119726
0.133316
0.149336
0.16487
0.178621
0.192746
0.203664
0.220817
0.258105
)
;
    }
    lowerWall
    {
        type            kqRWallFunction;
        value           nonuniform List<scalar> 
62
(
0.00443997
0.00737434
0.0108312
0.0134937
0.0153582
0.0168789
0.0181221
0.0191964
0.0201509
0.0210062
0.0217648
0.022418
0.0229439
0.0232995
0.0233894
0.0232338
0.0227176
0.021695
0.0201176
0.018005
0.0157367
0.0132496
0.0116475
0.0116475
0.020567
0.0266382
0.0327701
0.03834
0.043764
0.0489113
0.05635
0.0676025
0.0579975
0.050314
0.046783
0.0241133
0.0434459
0.0534332
0.0589983
0.0590544
0.0540689
0.0524135
0.052971
0.0241133
0.0372848
0.0418962
0.0513414
0.0671685
0.0961006
0.136361
0.189914
0.2292
0.222008
0.208763
0.191554
0.183564
0.178267
0.172597
0.165189
0.15536
0.132989
0.0855569
)
;
    }
    atmosphere
    {
        type            inletOutlet;
        inletValue      uniform 0.1;
        value           nonuniform List<scalar> 
46
(
0.1
0.1
0.1
0.1
0.1
0.1
0.1
0.1
0.1
0.1
0.1
0.1
0.1
0.1
0.1
0.1
0.1
0.1
0.1
0.1
0.1
0.1
0.1
0.1
0.1
0.1
0.1
0.1
0.1
0.1
0.1
0.1
0.1
0.1
0.1
0.1
0.1
0.1
0.1
0.1
0.1
0.1
0.1
0.585469
0.602625
0.258105
)
;
    }
    defaultFaces
    {
        type            empty;
    }
}


// ************************************************************************* //
