/*--------------------------------*- C++ -*----------------------------------*\
| =========                 |                                                 |
| \\      /  F ield         | OpenFOAM: The Open Source CFD Toolbox           |
|  \\    /   O peration     | Version:  v2012                                 |
|   \\  /    A nd           | Website:  www.openfoam.com                      |
|    \\/     M anipulation  |                                                 |
\*---------------------------------------------------------------------------*/
FoamFile
{
    version     2.0;
    format      ascii;
    class       volScalarField;
    location    "0.55";
    object      nut;
}
// * * * * * * * * * * * * * * * * * * * * * * * * * * * * * * * * * * * * * //

dimensions      [0 2 -1 0 0 0 0];


internalField   nonuniform List<scalar> 
2268
(
6.05635e-05
5.73188e-05
6.92925e-05
7.72549e-05
8.23251e-05
8.62255e-05
8.93036e-05
9.18851e-05
9.41233e-05
9.60885e-05
9.78026e-05
9.92601e-05
0.000100427
0.00010122
0.000101439
0.000101121
9.99834e-05
9.76738e-05
9.39976e-05
8.88256e-05
8.30883e-05
7.61631e-05
7.14996e-05
0.000117315
0.000338051
0.000493346
0.00058755
0.000654899
0.000703577
0.000742335
0.000774541
0.000801996
0.000825545
0.000845555
0.000862175
0.000875286
0.000884236
0.000886902
0.000871426
0.000835456
0.000779492
0.000708202
0.000630755
0.000559624
0.000469883
0.000200932
0.000124937
0.000545901
0.000805712
0.000989009
0.00113255
0.00125022
0.00134958
0.00143479
0.00150824
0.00157122
0.00162448
0.00166839
0.00170274
0.00172589
0.00173306
0.00170983
0.00164668
0.00153911
0.00138945
0.00121208
0.00103075
0.000825484
0.000228346
0.000126604
0.000651624
0.000977519
0.00123402
0.00145204
0.00164151
0.00180728
0.00195226
0.00207841
0.00218712
0.00227941
0.00235592
0.00241638
0.00245832
0.00247509
0.00245163
0.00237424
0.00223389
0.00202885
0.00177133
0.00148089
0.00110807
0.000253152
0.000129031
0.000665009
0.00104266
0.00136219
0.00165054
0.00191132
0.00214461
0.00235091
0.0025314
0.00268759
0.00282089
0.00293232
0.00302164
0.00308577
0.00311681
0.00309925
0.00301722
0.00285852
0.00261762
0.00230018
0.00190894
0.00135096
0.000273531
0.000130939
0.000632862
0.00103496
0.00140607
0.00176017
0.00209014
0.00238935
0.00265538
0.00288882
0.00309154
0.00326553
0.00341229
0.00353171
0.0036203
0.00366927
0.00366277
0.0035837
0.00341768
0.00315559
0.00279408
0.00231206
0.00157066
0.000292517
0.000131553
0.000579233
0.000982206
0.00139406
0.00180841
0.00220312
0.0025637
0.00288506
0.00316763
0.00341393
0.00362667
0.00380785
0.00395757
0.00407199
0.00414163
0.00415045
0.00408056
0.00391588
0.00364404
0.00325202
0.00269365
0.00178378
0.000309369
0.000130333
0.000515244
0.000908164
0.00135293
0.00182011
0.00227138
0.00268516
0.0030546
0.00338039
0.00366582
0.00391422
0.004128
0.00430748
0.00444845
0.0045408
0.0045685
0.00451284
0.00435649
0.00408445
0.00367566
0.00306484
0.00202578
0.000332627
0.00010401
0.000132443
0.000136359
0.000149768
0.000172541
0.000216102
0.000271079
0.000324663
0.000318233
0.000279448
0.00026229
0.000248338
0.000254532
0.00025477
0.000253915
0.000253881
0.000253216
0.000241668
0.000264268
0.000325054
0.000773951
0.000809456
0.000798415
0.000805437
0.000833555
0.000912604
0.000954036
0.000894007
0.000844897
0.000847136
0.000885298
0.000924911
0.000877966
0.000994007
0.00108978
0.0011189
0.00104667
0.00048292
0.000356673
0.0011463
0.00126818
0.00125683
0.00124288
0.00125744
0.00134761
0.00141847
0.00141077
0.00142583
0.00173157
0.0020959
0.00198303
0.00187645
0.00191596
0.0018723
0.00183102
0.00159168
0.000497239
0.000371113
0.00135317
0.00164672
0.00166607
0.00165004
0.0016703
0.00179448
0.00190364
0.00195364
0.00212983
0.00261566
0.00286207
0.0026498
0.00238492
0.00256239
0.00274178
0.00248547
0.00202802
0.00050521
0.000367783
0.00133398
0.00193017
0.00205545
0.00205981
0.00208859
0.00218029
0.00231417
0.00243962
0.00271374
0.00309562
0.00326518
0.00301075
0.00259498
0.00279193
0.00345686
0.00337207
0.0023902
0.000511469
0.000351452
0.000904978
0.00195836
0.0023777
0.00245258
0.00251182
0.00257496
0.00266192
0.00278327
0.00299137
0.00329118
0.00340645
0.00307253
0.00260405
0.00298131
0.00386905
0.00366734
0.00264622
0.000517347
0.000357595
0.000570741
0.00160894
0.00257882
0.00278983
0.00291853
0.00297365
0.00299714
0.00305374
0.00319484
0.00340949
0.00337788
0.00288764
0.00250932
0.00374143
0.00407185
0.00378747
0.00276442
0.000524727
0.00035983
0.000470187
0.00166506
0.00270248
0.00304718
0.00326317
0.00334993
0.00334158
0.00333995
0.00340847
0.00348156
0.00322683
0.00261041
0.0028993
0.00404687
0.00412791
0.0038912
0.00284621
0.00053061
0.000127649
0.000431953
0.000809372
0.00128783
0.00181378
0.00233041
0.00280768
0.0032364
0.00361745
0.00395525
0.00425443
0.00451775
0.004745
0.00493122
0.00506499
0.0051274
0.00510082
0.0049666
0.00470751
0.00429558
0.00366264
0.00265566
0.00110752
0.000127292
0.000342836
0.000737545
0.00126483
0.00183346
0.00238644
0.00289917
0.00336451
0.00378398
0.00416175
0.00450247
0.00481012
0.0050812
0.00531177
0.00549101
0.00560105
0.00562216
0.00552836
0.00530788
0.00493762
0.00436669
0.00352367
0.00238224
0.000180639
0.000454246
0.000828278
0.00132671
0.00187557
0.00241671
0.00292142
0.00338075
0.00379548
0.0041695
0.00452453
0.0048878
0.00520401
0.00548272
0.00570843
0.00585562
0.00590702
0.0058511
0.00568809
0.00539887
0.00494247
0.0043054
0.00353088
0.000242099
0.00126983
0.00209765
0.00274473
0.00330734
0.00382874
0.00430944
0.00473704
0.00509295
0.0053445
0.00542104
0.00509414
0.00525639
0.00550394
0.00572304
0.00588625
0.00595631
0.005939
0.00583745
0.00563103
0.00529047
0.00483291
0.00431394
0.000246815
0.00154948
0.00262991
0.00346128
0.00413525
0.00472749
0.00525531
0.00571751
0.00610528
0.00640504
0.00660375
0.00671083
0.0068566
0.00696223
0.006889
0.00626981
0.00601789
0.00594366
0.00583068
0.00562697
0.00535102
0.00502972
0.00468238
0.00024273
0.00168253
0.00294297
0.00392032
0.00471373
0.00539518
0.00599084
0.00650911
0.0069511
0.00731554
0.00760332
0.00782473
0.00799908
0.00809896
0.00807465
0.00787472
0.00764716
0.00725923
0.0061908
0.00568329
0.00534993
0.00501875
0.00470125
0.000239359
0.00175564
0.00314997
0.00424809
0.00515057
0.00591917
0.00658393
0.00715973
0.00765422
0.00807183
0.00841619
0.00869189
0.00890187
0.0090353
0.00907575
0.00901558
0.00887458
0.00860968
0.00814512
0.00766492
0.00699099
0.00556863
0.00481431
0.000236981
0.0018
0.00329073
0.00449473
0.00549255
0.00633879
0.00706573
0.00769277
0.00823206
0.00869147
0.00907638
0.00939065
0.00963628
0.00981064
0.00990764
0.00992541
0.00986681
0.00971896
0.00946776
0.00913387
0.00867265
0.0080335
0.00747263
0.000235833
0.00182368
0.00339257
0.00468617
0.00576402
0.00667592
0.00745553
0.00812557
0.00870155
0.00919408
0.00961049
0.00995584
0.0102335
0.0104446
0.0105888
0.0106656
0.0106748
0.010613
0.0104766
0.0102671
0.00997568
0.00960495
0.00920637
0.000235031
0.00184092
0.00347062
0.00483502
0.00597739
0.00694306
0.00776604
0.00847134
0.00907702
0.00959602
0.0100376
0.0104083
0.0107129
0.0109547
0.0111356
0.0112565
0.011318
0.0113197
0.0112611
0.0111428
0.0109646
0.0107315
0.010456
0.000234227
0.00185367
0.00352656
0.00494496
0.00613804
0.00714724
0.00800573
0.00873992
0.00936977
0.00991012
0.0103719
0.010763
0.0110895
0.0113559
0.0115652
0.0117196
0.0118204
0.0118686
0.0118651
0.011811
0.0117083
0.0115607
0.0113738
0.000233228
0.00185808
0.0035604
0.00501618
0.00624833
0.007293
0.00818076
0.00893903
0.00958898
0.0101469
0.0106249
0.0110324
0.0113761
0.0116615
0.0118923
0.0120715
0.0122011
0.0122828
0.0123179
0.0123082
0.0122561
0.0121649
0.0120391
0.000231621
0.00185342
0.00357288
0.00505464
0.00631431
0.00738465
0.0082966
0.00907542
0.00974262
0.0103153
0.0108069
0.0112274
0.0115844
0.011884
0.0121306
0.0123274
0.0124772
0.0125818
0.0126431
0.012663
0.012644
0.0125896
0.0125046
0.000229367
0.00183984
0.00356469
0.00506208
0.0063411
0.00743088
0.00836049
0.0091557
0.0098382
0.0104239
0.010927
0.011358
0.0117253
0.0120352
0.0122925
0.012501
0.0126636
0.0127827
0.0128602
0.0128984
0.0129
0.0128687
0.0128096
0.00022657
0.0018184
0.00353815
0.00504199
0.0063331
0.00743698
0.00838062
0.00918888
0.00988306
0.0104804
0.0109936
0.0114335
0.0118087
0.0121256
0.0123895
0.0126046
0.012774
0.0129004
0.0129862
0.0130339
0.0130466
0.0130284
0.0129846
0.000223406
0.00179067
0.0034965
0.00499891
0.00629572
0.00740885
0.00836308
0.00918199
0.00988617
0.0104926
0.0110145
0.011462
0.0118431
0.0121645
0.0124316
0.0126488
0.0128197
0.0129474
0.0130349
0.0130852
0.0131019
0.0130896
0.0130541
0.00022008
0.00175843
0.00344339
0.00493786
0.00623486
0.00735283
0.00831434
0.0091415
0.00985399
0.0104682
0.010997
0.0114504
0.011836
0.0121597
0.0124269
0.0126424
0.0128103
0.0129342
0.013018
0.0130655
0.0130809
0.0130696
0.0130378
0.000216796
0.00172349
0.00338247
0.00486388
0.00615645
0.00727533
0.00824088
0.00907377
0.00979266
0.0104132
0.0109476
0.0114053
0.0117934
0.0121175
0.0123823
0.0125928
0.0127536
0.0128695
0.0129452
0.0129857
0.0129964
0.0129832
0.0129531
0.000213744
0.00168757
0.00331719
0.00478174
0.00606618
0.00718252
0.00814901
0.00898494
0.009708
0.010333
0.0108714
0.0113319
0.0117208
0.0120432
0.0123034
0.012506
0.0126565
0.0127609
0.0128253
0.0128562
0.0128602
0.0128441
0.0128154
0.00021109
0.00165222
0.00325064
0.0046958
0.00596931
0.0070802
0.00804472
0.00888088
0.00960554
0.0102328
0.0107733
0.0112348
0.0116228
0.0119415
0.0121949
0.0123876
0.0125254
0.0126158
0.0126669
0.0126869
0.0126839
0.0126657
0.0126398
0.00020897
0.00161877
0.00318554
0.00460993
0.00587063
0.00697374
0.00793358
0.00876711
0.00949053
0.0101174
0.0106578
0.0111184
0.0115037
0.011817
0.0120618
0.0122428
0.0123668
0.012442
0.012479
0.0124883
0.0124794
0.012461
0.0124405
0.00020748
0.00158837
0.00312426
0.00452759
0.00577443
0.00686798
0.00782075
0.0086488
0.00936797
0.00999158
0.0105292
0.0109869
0.0113679
0.0116744
0.0119092
0.0120774
0.0121866
0.0122471
0.012271
0.0122707
0.012258
0.0122423
0.0122305
0.000206678
0.00156194
0.00306889
0.00445186
0.00568456
0.00676734
0.00771094
0.00853074
0.00924255
0.00985983
0.0103921
0.0108447
0.0112198
0.0115184
0.0117426
0.0118975
0.0119919
0.0120381
0.0120506
0.0120436
0.0120297
0.0120196
0.0120198
0.000206584
0.00154022
0.00302119
0.00438544
0.00560444
0.00667571
0.00760836
0.00841727
0.00911859
0.00972636
0.0102504
0.0106956
0.0110635
0.0113536
0.0115672
0.0117091
0.0117892
0.011822
0.0118244
0.011813
0.0118016
0.0117999
0.0118146
0.000207181
0.00152375
0.00298264
0.00433062
0.00553699
0.00659649
0.00751666
0.00831218
0.00899992
0.00959492
0.0101078
0.0105436
0.010903
0.0111843
0.0113876
0.0115173
0.0115843
0.0116047
0.0115982
0.0115834
0.0115757
0.0115851
0.0116167
0.000208427
0.00151288
0.00295436
0.00428922
0.00548456
0.00653239
0.00743885
0.00821866
0.00888977
0.00946876
0.00996752
0.0103917
0.0107414
0.0110138
0.0112075
0.0113262
0.011381
0.01139
0.0113751
0.0113571
0.0113529
0.011373
0.0114218
0.000210266
0.00150775
0.00293705
0.00426249
0.00544886
0.00648547
0.00737723
0.00813917
0.00879074
0.0093505
0.00983216
0.0102424
0.0105813
0.0108448
0.0110297
0.0111384
0.0111821
0.0111801
0.0111562
0.0111338
0.0111312
0.0111597
0.0112236
0.000212631
0.00150835
0.00293101
0.00425109
0.00543089
0.00645704
0.00733337
0.00807551
0.00870475
0.00924211
0.00970365
0.0100977
0.0104244
0.0106788
0.0108557
0.0109557
0.0109891
0.0109757
0.0109415
0.0109119
0.0109072
0.0109397
0.0110142
0.000215449
0.00151443
0.00293608
0.00425514
0.00543104
0.00644775
0.00730815
0.00802879
0.00863313
0.00914506
0.00958344
0.00995864
0.0102717
0.0105168
0.0106866
0.010779
0.0108027
0.0107773
0.0107302
0.0106892
0.0106769
0.0107071
0.0107856
0.00021864
0.00152561
0.00295182
0.00427434
0.00544926
0.00645774
0.00730192
0.00799956
0.00857669
0.00906035
0.0094726
0.00982637
0.010124
0.0103593
0.0105226
0.0106088
0.0106235
0.0105853
0.0105223
0.0104647
0.0104377
0.0104574
0.0105313
0.000222127
0.00154138
0.00297767
0.0043083
0.00548531
0.00648689
0.00731466
0.00798801
0.00853585
0.00898869
0.00937199
0.00970166
0.0099819
0.0102065
0.0103639
0.0104453
0.0104523
0.010401
0.0103192
0.0102393
0.0101894
0.0101889
0.0102474
0.000225853
0.00156135
0.00301329
0.00435691
0.00553917
0.00653515
0.00734627
0.00799406
0.00851077
0.00893055
0.0092824
0.00958535
0.00984592
0.0100587
0.0102105
0.0102888
0.0102902
0.0102266
0.0101241
0.0100163
0.00993499
0.00990332
0.00993436
0.000229814
0.00158541
0.00305897
0.00442081
0.00561154
0.00660293
0.00739683
0.00801764
0.00850148
0.0088863
0.00920456
0.0094784
0.00971694
0.0099162
0.0100625
0.0101396
0.0101385
0.0100651
0.00994197
0.00980253
0.00968177
0.00960764
0.00959769
0.000234071
0.00161401
0.00311612
0.00450208
0.00570442
0.0066916
0.0074669
0.00805878
0.00850791
0.00885617
0.00913921
0.00938193
0.00959612
0.00977988
0.00991988
0.00999747
0.00999794
0.00991975
0.00977919
0.00960738
0.00944137
0.00931425
0.00924938
0.00023877
0.00164846
0.00318801
0.00460511
0.00582188
0.00680392
0.00755779
0.00811775
0.00852995
0.00884024
0.00908693
0.00929712
0.0094849
0.00965081
0.00978311
0.00986215
0.00986846
0.00979248
0.00964184
0.00944195
0.00922938
0.00904163
0.00890882
0.00024416
0.00169144
0.00328096
0.00473803
0.0059712
0.00694475
0.00767181
0.00819508
0.00856732
0.00883825
0.00904804
0.00922499
0.00938481
0.00953048
0.00965275
0.00973287
0.00974855
0.00968298
0.00953359
0.00931643
0.00906338
0.00881354
0.00860348
0.00025064
0.00174813
0.00340668
0.0049151
0.00616431
0.00712144
0.00781213
0.00829128
0.00861937
0.00884941
0.00902226
0.0091661
0.00929722
0.00942051
0.00952977
0.00960883
0.00963531
0.0095875
0.00945309
0.0092361
0.0089586
0.00865599
0.00836807
0.000258899
0.00182817
0.0035867
0.00516072
0.00641964
0.00734402
0.00798227
0.00840625
0.00868454
0.00887205
0.00900843
0.00912017
0.0092228
0.00932229
0.00941531
0.00948952
0.00952511
0.00949915
0.00939242
0.00919697
0.00892124
0.00859006
0.00823961
0.000270323
0.00195057
0.00386236
0.00551643
0.00676378
0.00762396
0.00818442
0.00853806
0.0087598
0.00890324
0.00900427
0.00908576
0.00916115
0.00923638
0.00931038
0.00937491
0.00941474
0.00940951
0.00933788
0.00918361
0.00894148
0.0086209
0.00824561
0.000288255
0.00215813
0.00431947
0.00605244
0.00723054
0.0079697
0.008416
0.0086813
0.00883992
0.00893866
0.00900628
0.00906019
0.0091105
0.00916209
0.00921523
0.00926528
0.00930229
0.00931128
0.0092739
0.00917189
0.00899148
0.0087276
0.00838641
0.000323349
0.00257506
0.0051595
0.00688215
0.0078495
0.0083759
0.00866453
0.00882537
0.00891735
0.00897286
0.00901018
0.00903985
0.00906788
0.0090974
0.00912902
0.00916075
0.00918747
0.00920063
0.00918847
0.00913716
0.00903282
0.00886381
0.00862288
0.000419959
0.00382141
0.00694808
0.00814805
0.00860408
0.00880443
0.00890293
0.00895481
0.00898359
0.00900069
0.00901215
0.00902133
0.00903017
0.00903969
0.00905021
0.00906127
0.00907142
0.00907805
0.00907723
0.00906377
0.00903161
0.00897417
0.00888465
0.000367119
0.000340375
0.000317966
0.00030882
0.00170431
0.00149263
0.00141416
0.00140041
0.00305773
0.00278864
0.00259966
0.00247121
0.00396206
0.00372066
0.00350676
0.00332376
0.00442907
0.00424003
0.00405782
0.0038898
0.00450368
0.00436349
0.00423296
0.00411582
0.00455205
0.00439372
0.00424833
0.00411608
0.00705915
0.00671561
0.00626713
0.00562883
0.00887062
0.00860744
0.00830813
0.00797338
0.0102153
0.0100325
0.00983391
0.00962239
0.0112063
0.0110799
0.0109435
0.0107987
0.0119222
0.0118333
0.0117366
0.0116334
0.0124211
0.0123568
0.0122861
0.0122103
0.0127475
0.0126991
0.0126455
0.0125879
0.0129356
0.0128974
0.0128552
0.01281
0.0130126
0.0129811
0.0129466
0.0129103
0.0130008
0.0129739
0.0129452
0.0129157
0.0129191
0.0128961
0.0128723
0.0128488
0.0127847
0.0127657
0.012747
0.0127294
0.0126136
0.0125997
0.0125868
0.0125756
0.0124211
0.0124134
0.0124075
0.0124037
0.0122202
0.0122204
0.0122228
0.0122275
0.012021
0.0120305
0.0120427
0.0120572
0.0118292
0.0118493
0.0118725
0.011898
0.0116456
0.0116771
0.0117121
0.0117497
0.011466
0.011509
0.0115564
0.0116067
0.0112817
0.0113356
0.0113949
0.0114582
0.0110832
0.0111464
0.0112164
0.0112916
0.010861
0.0109307
0.011009
0.0110943
0.0106066
0.010679
0.010762
0.0108541
0.0103145
0.0103846
0.0104675
0.0105617
0.00998353
0.0100451
0.0101216
0.0102117
0.00961783
0.00966368
0.00972642
0.00980501
0.00922839
0.00925044
0.00929108
0.00934953
0.00883428
0.00882391
0.00883333
0.00886213
0.00846418
0.00841281
0.00838153
0.00837054
0.00815735
0.00805801
0.00797735
0.00791656
0.00796167
0.00781256
0.00767775
0.00755982
0.00792423
0.00773504
0.00755178
0.00737831
0.00807082
0.00786969
0.00766332
0.0074557
0.00838217
0.00821704
0.00803825
0.00784809
0.00878863
0.00871821
0.00863815
0.00854859
0.000600068
0.000931029
0.0019905
0.00287674
0.00332521
0.0036571
0.00383176
0.00384758
0.00379309
0.00372499
0.00353924
0.00301264
0.00271002
0.00393968
0.00413167
0.00419111
0.00399443
0.00292337
0.000535672
0.00148298
0.00179552
0.00189394
0.00282483
0.00331247
0.0036425
0.00384848
0.00390087
0.0038209
0.00361606
0.00323297
0.00281496
0.00389793
0.00403741
0.00417435
0.00429304
0.00412558
0.00302709
0.000545235
0.00233358
0.00242751
0.00270921
0.00300134
0.00310446
0.00341233
0.00353988
0.00357908
0.00349775
0.00329688
0.00309034
0.00384768
0.00395173
0.00410302
0.00430201
0.00444305
0.00425415
0.00310909
0.000549752
0.00307577
0.00298378
0.00310315
0.00329634
0.00350884
0.00354506
0.00334305
0.00335884
0.00330622
0.00332299
0.00387731
0.0040083
0.00414313
0.00434517
0.00454675
0.00462862
0.00435673
0.00315184
0.000548242
0.00364404
0.00348538
0.00346622
0.00355697
0.00368911
0.00381106
0.00392096
0.00398477
0.00397904
0.0040202
0.00405506
0.00420984
0.0044559
0.00469468
0.00483037
0.00477183
0.00437133
0.00312766
0.000541741
0.00394198
0.00381341
0.00375922
0.00378295
0.00385574
0.00394527
0.00402692
0.00405705
0.00404237
0.00404905
0.00417957
0.00447076
0.00483188
0.00506387
0.00505382
0.00476705
0.00420918
0.00298724
0.000528585
0.00396167
0.00388959
0.00388452
0.00392074
0.0039762
0.00403675
0.00408607
0.0041009
0.00409038
0.00412778
0.00431536
0.00470948
0.00525105
0.0053872
0.00501561
0.00443699
0.00380315
0.00269483
0.000501555
0.00436566
0.00395549
0.00390428
0.0039598
0.00401825
0.00407382
0.00411536
0.0041277
0.00412249
0.00416802
0.00435054
0.00493708
0.00533224
0.0049037
0.00440888
0.00381273
0.00324601
0.00228991
0.000466453
0.00739786
0.00688539
0.00627739
0.00452451
0.00411329
0.0041047
0.00414147
0.00415688
0.0041076
0.00407407
0.00429056
0.00494589
0.00470395
0.00413871
0.00352025
0.00298722
0.00268707
0.00188548
0.000421535
0.00926324
0.00884636
0.00838083
0.0077118
0.00727391
0.00693262
0.00623129
0.00490743
0.00395684
0.00402562
0.00443082
0.00427093
0.003902
0.00317656
0.00248427
0.00204207
0.0017957
0.00119602
0.000401727
0.0105519
0.0102423
0.00991839
0.00955333
0.00920982
0.00881844
0.00814413
0.00696545
0.00577328
0.00483512
0.00440094
0.00423411
0.0036235
0.00243685
0.00178971
0.00149742
0.00130227
0.0010473
0.000384869
0.0114575
0.0112344
0.0110106
0.0107575
0.0104406
0.00996379
0.00917681
0.00812102
0.0068267
0.00537669
0.0046885
0.00442859
0.00362661
0.0020243
0.00147455
0.0013406
0.00125799
0.00108434
0.00040211
0.0120819
0.0119222
0.0117644
0.0115725
0.0112799
0.0107676
0.00999544
0.00901453
0.00772985
0.00613684
0.00518881
0.00477184
0.00413602
0.00247627
0.00141393
0.00127465
0.0012249
0.00106047
0.000392099
0.0124924
0.0123785
0.0122676
0.0121269
0.011881
0.0114103
0.0106979
0.00977489
0.00856604
0.00707241
0.00596246
0.00561639
0.00524996
0.00426943
0.0026433
0.00125959
0.00120983
0.00105333
0.000387705
0.0127376
0.0126565
0.0125843
0.0124914
0.0123062
0.0119167
0.0112773
0.0104069
0.00928683
0.00795173
0.0068959
0.00655415
0.00639197
0.00596379
0.00491644
0.00277563
0.00116668
0.00109712
0.000393568
0.012855
0.012799
0.0127577
0.0127061
0.0125805
0.0122804
0.0117225
0.0109084
0.00985909
0.0086729
0.00779103
0.00752901
0.00749616
0.00718874
0.00605499
0.00358863
0.0015246
0.00112404
0.000398974
0.012874
0.0128375
0.0128196
0.0127995
0.0127222
0.0124975
0.0120319
0.0112895
0.0103115
0.00927107
0.00855951
0.00838624
0.00837823
0.00799505
0.00671412
0.00422124
0.00171306
0.0011424
0.000412596
0.0128189
0.012798
0.0127966
0.0127976
0.012755
0.0125899
0.0122107
0.0115645
0.0106915
0.00978174
0.00916949
0.00897136
0.00882642
0.00825137
0.0068372
0.00449677
0.00163636
0.00114811
0.00041461
0.0127107
0.012703
0.0127126
0.0127256
0.0127049
0.0125853
0.0122851
0.0117473
0.0109976
0.0101942
0.00957746
0.00918678
0.00873859
0.00789222
0.00631456
0.00391014
0.00177087
0.00118008
0.000406626
0.0125685
0.0125731
0.0125899
0.0126077
0.0125979
0.0125095
0.0122751
0.0118395
0.0112064
0.0104699
0.00975535
0.00906874
0.00830553
0.00721423
0.00527821
0.00293346
0.00202933
0.00125185
0.000399876
0.0124094
0.0124262
0.0124485
0.0124665
0.012459
0.0123879
0.0122002
0.0118449
0.011301
0.0105911
0.00974865
0.00880402
0.00783003
0.00658895
0.00447078
0.00254924
0.00214532
0.00147524
0.000400886
0.0122475
0.0122777
0.0123055
0.0123217
0.0123103
0.0122441
0.0120825
0.0117781
0.0112892
0.0105826
0.00964176
0.00854873
0.00746604
0.00622893
0.00393837
0.00235841
0.00216436
0.00177019
0.000408215
0.0120934
0.0121391
0.0121742
0.0121887
0.0121702
0.0120993
0.011945
0.0116637
0.0112003
0.0104894
0.00949464
0.00833358
0.00722091
0.00601415
0.00317457
0.00229314
0.00217217
0.00195985
0.000435613
0.0119526
0.012017
0.012063
0.0120785
0.0120527
0.0119714
0.0118104
0.0115302
0.011071
0.0103538
0.00933692
0.00815216
0.00703714
0.00582738
0.00262604
0.00224971
0.00214919
0.00195018
0.000461493
0.0118249
0.0119122
0.0119745
0.0119965
0.0119671
0.0118743
0.0116987
0.0114057
0.0109366
0.0102115
0.00918704
0.00799294
0.00687499
0.00559455
0.002399
0.00224516
0.00210194
0.00185339
0.000485375
0.0117045
0.0118196
0.0119051
0.0119418
0.0119163
0.0118167
0.0116259
0.0113143
0.010829
0.0100956
0.0090697
0.00786792
0.00674139
0.00537851
0.00235825
0.00222996
0.00203395
0.00172274
0.000478967
0.0115804
0.0117281
0.0118446
0.0119061
0.0118959
0.0117996
0.0116007
0.0112736
0.0107738
0.0100373
0.00902103
0.00782462
0.00668354
0.00533445
0.00235958
0.0021617
0.00192572
0.00160508
0.000451834
0.0114375
0.011622
0.0117771
0.0118739
0.0118925
0.0118143
0.011621
0.01129
0.0107857
0.0100583
0.00907178
0.00791212
0.00679121
0.0055361
0.00239943
0.00206333
0.00182614
0.0015184
0.000460686
0.0112613
0.0114824
0.0116807
0.0118235
0.0118842
0.011841
0.0116716
0.0113543
0.0108625
0.0101608
0.00922441
0.00812237
0.00702631
0.00570779
0.00243333
0.00202718
0.00179253
0.00148737
0.000462126
0.0110376
0.0112913
0.0115332
0.0117274
0.0118426
0.0118509
0.0117256
0.0114439
0.0109836
0.0103227
0.00944684
0.00839675
0.00727243
0.00572438
0.00239904
0.00205334
0.00181509
0.00150242
0.000465889
0.0107542
0.0110319
0.0113126
0.0115585
0.0117347
0.0118078
0.0117457
0.0115217
0.0111154
0.0105097
0.00969592
0.00867576
0.0074443
0.00545581
0.00238348
0.00211634
0.00186719
0.00154448
0.000471486
0.0104033
0.0106916
0.0109999
0.0112913
0.0115278
0.0116722
0.0116872
0.0115397
0.011206
0.0106751
0.00993357
0.00893768
0.00756437
0.00485163
0.00240883
0.00217847
0.00192927
0.0016024
0.000478186
0.00998328
0.0102641
0.0105822
0.0109058
0.0111935
0.0114062
0.0115028
0.0114425
0.0111947
0.0107498
0.0101045
0.00917956
0.00775639
0.00479324
0.00242921
0.0021933
0.00197594
0.00166592
0.000475895
0.00950035
0.00975219
0.010057
0.0103915
0.0107125
0.0109802
0.0111521
0.0111821
0.011029
0.0106837
0.0101351
0.00931269
0.00802279
0.0056235
0.00248398
0.00217345
0.00201173
0.00172389
0.000519762
0.00896977
0.00916851
0.0094343
0.00975058
0.0100787
0.0103783
0.0106082
0.0107199
0.0106696
0.0104364
0.00998451
0.00927393
0.00817831
0.00642256
0.00281673
0.00215722
0.00206012
0.00181938
0.000551405
0.00841789
0.00853738
0.00873528
0.00899908
0.00930259
0.00960382
0.00986419
0.0100367
0.0100767
0.00995287
0.00962059
0.00903509
0.00812766
0.00667517
0.0035737
0.00221091
0.00214692
0.00196719
0.000585502
0.00788563
0.00789809
0.00799818
0.00817461
0.00841526
0.00868106
0.00893605
0.00913907
0.00924359
0.0092101
0.00900295
0.00857512
0.00784501
0.006676
0.00482581
0.00244094
0.00228507
0.00216108
0.000622582
0.00743403
0.00731119
0.00728269
0.0073391
0.00747122
0.00765895
0.00786452
0.00805842
0.00819511
0.00823172
0.00812855
0.0078462
0.00732
0.00648248
0.00522258
0.00287785
0.00244864
0.00238034
0.000658632
0.00715056
0.00687063
0.00668389
0.0065867
0.00657011
0.00662614
0.0067294
0.00685822
0.00697898
0.00705027
0.00703238
0.0068874
0.00657477
0.00605272
0.00526738
0.00403189
0.00257477
0.00256737
0.000703963
0.00714714
0.00671949
0.00636252
0.00608688
0.00589002
0.00576428
0.00570027
0.00568603
0.0057107
0.00574318
0.00575032
0.00569928
0.00555907
0.0052966
0.0049063
0.00406256
0.00290314
0.00275653
0.000714778
0.00753525
0.00705447
0.00658999
0.00616745
0.00579746
0.0054791
0.00520515
0.00496767
0.00477773
0.00463197
0.00451794
0.00441492
0.00429611
0.00412858
0.0038943
0.00346112
0.00307073
0.00297518
0.000742663
0.00838728
0.00811422
0.00781362
0.00750069
0.00718515
0.00686831
0.00654258
0.00619607
0.00583067
0.00545502
0.00508262
0.00472259
0.00434847
0.00384054
0.00293815
0.00213605
0.00313822
0.00291856
0.000797801
)
;

boundaryField
{
    leftWall
    {
        type            nutkWallFunction;
        blending        stepwise;
        Cmu             0.09;
        kappa           0.41;
        E               9.8;
        value           nonuniform List<scalar> 
50
(
1.12916e-05
1.38663e-05
1.47115e-05
1.49126e-05
1.52095e-05
1.54455e-05
1.55368e-05
1.54245e-05
1.51348e-05
1.51822e-05
1.63258e-05
2.59734e-05
2.68765e-05
2.62704e-05
2.57394e-05
2.53689e-05
2.51825e-05
2.5061e-05
2.49409e-05
2.47993e-05
2.45756e-05
2.42611e-05
2.38686e-05
2.34225e-05
2.29515e-05
2.24848e-05
2.20502e-05
2.16719e-05
2.137e-05
2.11596e-05
2.10496e-05
2.10434e-05
2.1139e-05
2.13304e-05
2.16091e-05
2.19652e-05
2.23876e-05
2.28645e-05
2.33841e-05
2.39378e-05
2.45236e-05
2.51491e-05
2.58336e-05
2.66104e-05
2.75327e-05
2.86918e-05
3.02688e-05
3.26977e-05
3.73383e-05
4.96489e-05
)
;
    }
    rightWall
    {
        type            nutkWallFunction;
        blending        stepwise;
        Cmu             0.09;
        kappa           0.41;
        E               9.8;
        value           nonuniform List<scalar> 
50
(
4.87673e-05
5.16663e-05
5.29046e-05
5.38236e-05
5.45291e-05
5.51617e-05
5.57223e-05
5.61067e-05
5.63914e-05
5.69423e-05
5.7363e-05
5.72248e-05
5.6624e-05
5.54664e-05
5.31664e-05
5.01807e-05
4.61792e-05
4.45814e-05
4.31761e-05
4.44243e-05
4.47181e-05
4.30583e-05
4.34893e-05
4.42039e-05
4.59106e-05
4.59131e-05
4.50475e-05
4.48218e-05
4.49494e-05
4.53247e-05
4.67503e-05
4.88594e-05
5.22719e-05
5.31973e-05
5.09337e-05
5.11943e-05
5.12875e-05
5.1566e-05
5.20055e-05
5.25227e-05
5.47015e-05
5.82334e-05
6.11592e-05
6.44053e-05
6.73756e-05
6.98766e-05
7.16252e-05
7.32584e-05
7.60059e-05
8.21095e-05
)
;
    }
    lowerWall
    {
        type            nutkWallFunction;
        blending        stepwise;
        Cmu             0.09;
        kappa           0.41;
        E               9.8;
        value           nonuniform List<scalar> 
62
(
5.43285e-06
6.99959e-06
8.44391e-06
9.38719e-06
9.98723e-06
1.04472e-05
1.08064e-05
1.1106e-05
1.13644e-05
1.15902e-05
1.17863e-05
1.19521e-05
1.20837e-05
1.21717e-05
1.21938e-05
1.21555e-05
1.20272e-05
1.17684e-05
1.13555e-05
1.07732e-05
1.01043e-05
9.3056e-06
8.74581e-06
8.74581e-06
2.30676e-05
2.59798e-05
2.8569e-05
3.06983e-05
3.26137e-05
3.43143e-05
3.66064e-05
3.99673e-05
3.7268e-05
3.49262e-05
3.3784e-05
5.59387e-06
3.77768e-05
4.25627e-05
4.50159e-05
4.50923e-05
4.34671e-05
4.38214e-05
3.93216e-05
5.59387e-06
9.52591e-06
1.07083e-05
1.29164e-05
1.6147e-05
2.10793e-05
2.67731e-05
3.3653e-05
3.87497e-05
3.80798e-05
3.60913e-05
3.31902e-05
3.194e-05
3.13497e-05
3.08305e-05
3.019e-05
2.93376e-05
2.73152e-05
2.23075e-05
)
;
    }
    atmosphere
    {
        type            calculated;
        value           nonuniform List<scalar> 
46
(
0.009
0.009
0.009
0.009
0.009
0.009
0.009
0.009
0.009
0.009
0.009
0.009
0.009
0.009
0.009
0.009
0.009
0.009
0.009
0.009
0.009
0.009
0.009
0.009
0.009
0.009
0.009
0.009
0.009
0.009
0.009
0.009
0.009
0.009
0.009
0.009
0.009
0.009
0.009
0.009
0.009
0.009
0.009
0.00313822
0.00291856
0.000797801
)
;
    }
    defaultFaces
    {
        type            empty;
    }
}


// ************************************************************************* //
