/*--------------------------------*- C++ -*----------------------------------*\
| =========                 |                                                 |
| \\      /  F ield         | OpenFOAM: The Open Source CFD Toolbox           |
|  \\    /   O peration     | Version:  v2012                                 |
|   \\  /    A nd           | Website:  www.openfoam.com                      |
|    \\/     M anipulation  |                                                 |
\*---------------------------------------------------------------------------*/
FoamFile
{
    version     2.0;
    format      ascii;
    class       volScalarField;
    location    "0.55";
    object      p;
}
// * * * * * * * * * * * * * * * * * * * * * * * * * * * * * * * * * * * * * //

dimensions      [1 -1 -2 0 0 0 0];


internalField   nonuniform List<scalar> 
2268
(
563.46
562.225
567.858
577.14
587.976
599.412
611.528
624.628
638.999
654.795
672.039
690.674
710.614
731.75
754.008
777.284
801.461
826.203
850.659
872.785
887.622
891.732
910.325
504.361
502.138
506.843
515.465
525.893
537.223
549.452
562.79
577.451
593.558
611.122
630.087
650.379
671.91
694.604
718.488
743.468
769.362
795.27
818.455
834.761
833.085
850.239
444.336
442.188
446.676
454.38
464.126
475.128
487.296
500.746
515.624
532.019
549.915
569.247
589.953
611.962
635.221
659.733
685.436
712.036
738.6
762.18
779.178
778.731
793.704
384.259
382.445
386.89
393.898
402.99
413.568
425.53
438.952
453.938
470.55
488.739
508.414
529.521
551.996
575.774
600.806
626.976
653.862
680.525
704.168
721.813
725.643
741.075
324.521
323.396
327.3
333.721
342.208
352.322
363.997
377.3
392.32
409.103
427.557
447.551
469.039
491.963
516.235
541.746
568.282
595.301
621.928
645.697
664.07
672.306
691.128
265.045
264.562
267.731
273.575
281.478
291.096
302.433
315.567
330.585
347.527
366.245
386.548
408.413
431.792
456.579
482.608
509.551
536.726
563.376
587.375
606.402
619.283
642.759
205.701
205.476
207.845
213.113
220.454
229.569
240.555
253.511
268.54
285.692
304.723
325.352
347.605
371.456
396.801
423.434
450.883
478.3
505.088
529.37
548.817
565.473
591.218
146.484
145.441
146.644
151.34
158.286
167.057
177.786
190.634
205.78
223.321
242.848
263.899
286.603
310.985
336.943
364.265
392.293
420.052
447.092
471.655
491.13
508.018
533.88
382.391
382.376
382.3
382.272
382.264
382.182
381.906
381.446
381.027
379.841
378.929
381.597
385.636
393.007
393.896
448.9
1142.94
2512.25
2983.95
382.316
382.301
382.234
382.224
382.234
382.174
381.899
381.377
380.254
377.254
374.469
375.154
376.9
378.654
376.507
396.068
801.477
2089.41
2751.19
382.241
382.247
382.18
382.158
382.134
382.031
381.666
380.8
378.211
375.12
374.165
375.306
377.173
378.329
378.002
390.116
581.592
1625.38
2429.01
382.173
382.218
382.135
382.056
381.946
381.731
381.201
379.592
376.748
374.507
374.045
375.287
377.071
377.932
378.443
388.564
483.232
1266.69
2099.37
382.116
382.211
382.088
381.915
381.701
381.346
380.59
378.772
376.304
374.463
374.174
375.373
376.962
377.698
378.783
388.199
445.87
1081.21
1807.36
382.044
382.191
382.005
381.73
381.426
380.942
380.048
378.366
376.292
374.727
374.47
375.488
376.82
377.491
378.881
389.253
445.739
976.8
1575.94
381.808
381.839
381.702
381.488
381.143
380.57
379.641
378.162
376.426
375.08
374.813
375.601
376.672
377.357
378.882
390.263
494.613
918.782
1395.52
374.577
380.508
381.311
381.229
380.871
380.251
379.328
378.023
376.554
375.422
375.15
375.713
376.524
377.336
380.189
396.244
543.986
882.426
1264.36
63.1208
61.0322
61.0985
64.3928
69.4939
76.0037
84.2803
94.846
108.319
125.225
145.097
166.882
190.476
215.974
243.226
271.794
300.86
329.255
356.89
382.095
401.533
412.039
409.046
4.21429
3.99458
4.58064
5.61587
7.08444
9.06087
11.7364
15.4001
20.4778
27.5498
37.0148
49.916
66.8624
88.3733
114.509
145.691
178.159
207.465
236.913
265.372
288.879
306.778
323.581
-0.313368
-0.258338
-0.238531
-0.22895
-0.222339
-0.221031
-0.225447
-0.232122
-0.23564
-0.227945
-0.135898
1.51557
5.29794
11.5354
22.5438
40.3366
63.4122
88.0565
119.81
153.104
179.732
203.548
226.48
-0.415721
-0.413842
-0.401302
-0.392786
-0.386358
-0.382147
-0.380149
-0.379508
-0.378331
-0.372153
-0.353883
-0.339789
-0.371849
-0.411454
-0.396696
0.415823
4.06832
13.0186
30.1977
53.1127
75.8496
101.31
126.658
-0.554887
-0.552127
-0.544231
-0.535976
-0.530436
-0.527096
-0.525115
-0.523586
-0.521147
-0.515978
-0.509801
-0.521085
-0.534727
-0.53956
-0.529127
-0.526297
-0.603121
-0.730158
-0.0213267
3.92955
13.2537
28.7298
47.8346
-0.688034
-0.687277
-0.683479
-0.678591
-0.674787
-0.6722
-0.670414
-0.668851
-0.666756
-0.663563
-0.660822
-0.665492
-0.672766
-0.68079
-0.686499
-0.701876
-0.721787
-0.727044
-0.770846
-0.918872
-1.04695
-0.410987
2.71878
-0.827255
-0.826245
-0.823985
-0.821058
-0.818539
-0.816629
-0.815183
-0.81394
-0.812608
-0.811131
-0.810448
-0.813336
-0.819022
-0.826282
-0.834674
-0.849128
-0.869199
-0.889044
-0.904188
-0.920241
-0.933538
-0.969855
-1.03516
-0.96651
-0.965772
-0.964555
-0.962929
-0.961404
-0.96015
-0.959155
-0.958346
-0.95767
-0.957254
-0.95771
-0.960243
-0.964812
-0.970957
-0.978837
-0.990766
-1.00788
-1.02764
-1.04869
-1.07147
-1.08536
-1.08063
-1.07367
-1.10628
-1.10579
-1.10528
-1.10452
-1.10372
-1.10301
-1.10243
-1.10201
-1.1018
-1.10195
-1.10288
-1.10516
-1.10893
-1.11414
-1.12108
-1.13079
-1.14373
-1.15878
-1.17598
-1.19487
-1.20947
-1.21556
-1.22287
-1.24612
-1.24602
-1.24606
-1.24588
-1.24559
-1.24529
-1.24505
-1.24493
-1.24501
-1.24544
-1.24649
-1.2485
-1.25163
-1.25599
-1.26185
-1.26968
-1.27962
-1.29114
-1.30395
-1.31742
-1.32905
-1.33736
-1.34427
-1.38586
-1.38616
-1.38665
-1.3869
-1.38697
-1.38697
-1.38699
-1.38707
-1.38733
-1.38787
-1.38889
-1.3906
-1.39317
-1.39674
-1.40151
-1.40773
-1.41546
-1.42439
-1.43414
-1.4441
-1.45302
-1.46012
-1.46563
-1.52538
-1.52603
-1.52689
-1.52745
-1.5278
-1.52803
-1.52822
-1.52845
-1.52879
-1.52935
-1.53026
-1.53167
-1.53373
-1.53658
-1.54038
-1.54527
-1.5513
-1.55826
-1.56585
-1.57355
-1.58056
-1.5863
-1.59067
-1.66459
-1.66554
-1.66667
-1.66748
-1.66804
-1.66845
-1.66878
-1.6691
-1.66948
-1.66999
-1.67075
-1.67187
-1.67348
-1.6757
-1.67867
-1.6825
-1.68721
-1.6927
-1.69871
-1.70484
-1.71049
-1.71523
-1.71878
-1.80353
-1.80467
-1.806
-1.80699
-1.80771
-1.80825
-1.80869
-1.80907
-1.80945
-1.8099
-1.8105
-1.81136
-1.81257
-1.81425
-1.81653
-1.81951
-1.82323
-1.82762
-1.83248
-1.8375
-1.84221
-1.84621
-1.84918
-1.94222
-1.94346
-1.94489
-1.94601
-1.94686
-1.94751
-1.94802
-1.94843
-1.9488
-1.94918
-1.94964
-1.95026
-1.95114
-1.95238
-1.95411
-1.95642
-1.95939
-1.96296
-1.96702
-1.97128
-1.97535
-1.97887
-1.98152
-2.08069
-2.08195
-2.08341
-2.08461
-2.08554
-2.08627
-2.08684
-2.08728
-2.08763
-2.08794
-2.08828
-2.08871
-2.08932
-2.09022
-2.09152
-2.09334
-2.09574
-2.09875
-2.10225
-2.10602
-2.10972
-2.11301
-2.11561
-2.219
-2.2202
-2.22164
-2.22287
-2.22385
-2.22464
-2.22524
-2.22569
-2.22603
-2.22629
-2.22652
-2.22681
-2.22722
-2.22787
-2.22887
-2.23033
-2.23236
-2.23498
-2.23813
-2.24164
-2.24519
-2.24849
-2.25129
-2.35716
-2.35827
-2.35965
-2.36086
-2.36187
-2.36268
-2.3633
-2.36376
-2.36408
-2.36429
-2.36446
-2.36464
-2.36492
-2.3654
-2.3662
-2.36744
-2.36924
-2.37165
-2.37463
-2.37806
-2.38164
-2.38514
-2.38834
-2.4952
-2.4962
-2.49749
-2.49867
-2.49967
-2.50048
-2.50111
-2.50156
-2.50186
-2.50205
-2.50216
-2.50228
-2.50247
-2.50285
-2.50355
-2.50468
-2.50638
-2.50871
-2.51168
-2.51516
-2.51894
-2.52277
-2.52654
-2.63314
-2.63403
-2.63521
-2.63634
-2.63731
-2.63811
-2.63873
-2.63917
-2.63946
-2.63962
-2.63971
-2.63979
-2.63995
-2.64029
-2.64094
-2.64206
-2.64375
-2.64612
-2.64919
-2.65286
-2.65693
-2.66122
-2.66564
-2.77099
-2.77179
-2.77287
-2.77393
-2.77486
-2.77562
-2.77622
-2.77664
-2.77692
-2.77708
-2.77716
-2.77724
-2.7774
-2.77775
-2.77843
-2.77959
-2.78136
-2.78385
-2.7871
-2.79103
-2.79548
-2.80028
-2.80541
-2.90877
-2.90949
-2.91048
-2.91147
-2.91234
-2.91306
-2.91362
-2.91402
-2.91429
-2.91445
-2.91455
-2.91465
-2.91485
-2.91526
-2.91602
-2.91728
-2.91918
-2.92185
-2.92532
-2.92956
-2.93441
-2.93974
-2.94556
-3.0465
-3.04716
-3.04807
-3.04899
-3.04979
-3.05046
-3.05097
-3.05134
-3.0516
-3.05176
-3.05189
-3.05204
-3.05231
-3.05282
-3.05369
-3.0551
-3.05717
-3.06004
-3.06376
-3.0683
-3.07352
-3.07933
-3.08575
-3.18419
-3.18481
-3.18565
-3.1865
-3.18723
-3.18783
-3.18829
-3.18863
-3.18887
-3.18904
-3.1892
-3.18942
-3.18978
-3.1904
-3.19142
-3.19299
-3.19526
-3.19835
-3.2023
-3.2071
-3.21263
-3.2188
-3.22566
-3.32186
-3.32244
-3.32323
-3.32401
-3.32468
-3.32522
-3.32562
-3.32591
-3.32612
-3.3263
-3.32649
-3.32677
-3.32723
-3.32798
-3.32916
-3.33091
-3.33338
-3.33666
-3.34081
-3.34581
-3.35155
-3.35794
-3.36505
-3.4595
-3.46006
-3.46081
-3.46154
-3.46215
-3.46261
-3.46295
-3.4632
-3.46338
-3.46355
-3.46377
-3.4641
-3.46465
-3.46553
-3.46686
-3.46879
-3.47143
-3.47489
-3.47919
-3.48431
-3.49013
-3.49657
-3.50371
-3.59714
-3.59767
-3.5984
-3.5991
-3.59964
-3.60004
-3.60032
-3.60051
-3.60066
-3.60082
-3.60105
-3.60143
-3.60206
-3.60304
-3.6045
-3.60658
-3.60938
-3.61297
-3.61736
-3.62251
-3.62829
-3.63459
-3.64151
-3.73478
-3.7353
-3.73601
-3.73667
-3.73717
-3.73751
-3.73773
-3.73787
-3.73798
-3.73812
-3.73835
-3.73875
-3.73943
-3.7405
-3.74207
-3.74426
-3.74717
-3.75084
-3.75525
-3.76033
-3.76593
-3.77194
-3.77841
-3.87243
-3.87294
-3.87364
-3.87427
-3.87472
-3.87501
-3.87518
-3.87527
-3.87534
-3.87545
-3.87567
-3.87609
-3.8768
-3.87792
-3.87956
-3.88182
-3.88479
-3.88847
-3.89283
-3.89774
-3.90304
-3.90858
-3.91439
-4.0101
-4.01061
-4.0113
-4.0119
-4.01231
-4.01255
-4.01267
-4.01272
-4.01275
-4.01283
-4.01303
-4.01344
-4.01416
-4.0153
-4.01697
-4.01927
-4.02223
-4.02586
-4.03009
-4.03474
-4.03962
-4.04455
-4.04953
-4.14778
-4.14829
-4.14896
-4.14955
-4.14992
-4.15013
-4.15021
-4.15022
-4.15021
-4.15025
-4.15042
-4.15081
-4.15152
-4.15266
-4.15432
-4.1566
-4.15951
-4.16303
-4.16704
-4.17136
-4.17572
-4.17992
-4.18393
-4.28547
-4.28598
-4.28665
-4.28722
-4.28757
-4.28774
-4.28779
-4.28777
-4.28772
-4.28773
-4.28787
-4.28823
-4.2889
-4.29001
-4.29163
-4.29384
-4.29665
-4.3
-4.30375
-4.30765
-4.31142
-4.31483
-4.31778
-4.42317
-4.42369
-4.42435
-4.42491
-4.42525
-4.4254
-4.42542
-4.42537
-4.42529
-4.42527
-4.42537
-4.42568
-4.42631
-4.42735
-4.4289
-4.431
-4.43367
-4.43681
-4.44025
-4.4437
-4.44685
-4.44942
-4.45128
-4.56087
-4.56145
-4.56209
-4.56264
-4.56297
-4.56311
-4.56311
-4.56303
-4.56292
-4.56287
-4.56293
-4.56319
-4.56375
-4.56471
-4.56615
-4.56812
-4.57061
-4.5735
-4.57659
-4.57958
-4.5821
-4.58386
-4.58468
-4.69854
-4.69927
-4.69988
-4.70044
-4.70075
-4.70087
-4.70085
-4.70075
-4.70062
-4.70053
-4.70055
-4.70076
-4.70125
-4.7021
-4.70341
-4.70521
-4.70748
-4.7101
-4.71283
-4.71536
-4.71729
-4.71831
-4.71819
-4.83619
-4.8372
-4.83778
-4.83832
-4.83861
-4.8387
-4.83866
-4.83854
-4.83839
-4.83827
-4.83825
-4.8384
-4.83879
-4.83953
-4.84068
-4.84228
-4.8443
-4.84662
-4.849
-4.85109
-4.8525
-4.8529
-4.85202
-4.97379
-4.97533
-4.97585
-4.97633
-4.97657
-4.97661
-4.97654
-4.9764
-4.97624
-4.97609
-4.97603
-4.97611
-4.97641
-4.977
-4.97797
-4.97934
-4.98108
-4.98308
-4.9851
-4.9868
-4.98779
-4.98771
-4.98629
-5.11131
-5.11371
-5.11418
-5.11453
-5.11467
-5.11464
-5.11453
-5.11437
-5.11419
-5.11402
-5.11392
-5.11393
-5.11412
-5.11456
-5.11531
-5.11641
-5.11785
-5.1195
-5.12116
-5.12251
-5.12316
-5.12278
-5.12108
-5.24883
-5.25237
-5.25283
-5.25291
-5.25287
-5.25276
-5.2526
-5.25242
-5.25223
-5.25204
-5.2519
-5.25183
-5.25191
-5.25217
-5.25269
-5.2535
-5.25459
-5.25587
-5.25715
-5.25815
-5.25856
-5.25804
-5.25635
-5.38689
-5.39156
-5.39191
-5.39126
-5.39091
-5.39072
-5.39055
-5.39036
-5.39016
-5.38996
-5.38977
-5.38963
-5.38958
-5.38966
-5.38993
-5.39041
-5.39111
-5.39196
-5.39282
-5.39349
-5.39369
-5.39317
-5.39174
-5.52515
-5.53308
-5.53226
-5.52968
-5.5288
-5.52856
-5.52839
-5.52822
-5.52802
-5.5278
-5.52757
-5.52735
-5.52716
-5.52705
-5.52704
-5.52717
-5.52743
-5.5278
-5.5282
-5.52848
-5.52848
-5.52801
-5.5269
-5.65816
-5.67969
-5.6748
-5.67031
-5.6692
-5.66888
-5.66869
-5.66849
-5.66827
-5.66801
-5.66772
-5.6674
-5.66706
-5.66673
-5.66641
-5.66613
-5.6659
-5.66572
-5.66557
-5.66541
-5.66518
-5.66481
-5.66419
375.22
382.258
392.467
390.472
330.746
335.699
338.995
337.806
238.381
245.413
252.976
261.306
141.555
152.251
164.509
177.659
58.1554
65.1831
75.1665
88.1103
7.22588
11.0091
16.2121
24.1339
-1.07234
-1.11574
-1.12374
-0.937473
-1.0647
-1.05902
-1.05165
-1.04627
-1.23305
-1.23578
-1.23183
-1.2227
-1.34736
-1.34883
-1.34937
-1.34924
-1.46881
-1.47094
-1.4726
-1.474
-1.5936
-1.5957
-1.59753
-1.59911
-1.72148
-1.7235
-1.72525
-1.72664
-1.85175
-1.85373
-1.8554
-1.8566
-1.98411
-1.98619
-1.98792
-1.98908
-2.11845
-2.12082
-2.12281
-2.12416
-2.25461
-2.25746
-2.25994
-2.26169
-2.39233
-2.3958
-2.39894
-2.40129
-2.53129
-2.53543
-2.53932
-2.54238
-2.67117
-2.67598
-2.68061
-2.6844
-2.8117
-2.81713
-2.82242
-2.82685
-2.95256
-2.95851
-2.96433
-2.96928
-3.09333
-3.09969
-3.10591
-3.11121
-3.23364
-3.24024
-3.24668
-3.25217
-3.37316
-3.37981
-3.38627
-3.39176
-3.51169
-3.51817
-3.52443
-3.52971
-3.64911
-3.65522
-3.66106
-3.66593
-3.78538
-3.79094
-3.79615
-3.80044
-3.92053
-3.92536
-3.9298
-3.93335
-4.05464
-4.05861
-4.06214
-4.06485
-4.18787
-4.1909
-4.19342
-4.19522
-4.32047
-4.32248
-4.32395
-4.32481
-4.4527
-4.45369
-4.45411
-4.45405
-4.58489
-4.58489
-4.58431
-4.58337
-4.71733
-4.71645
-4.71497
-4.71326
-4.85029
-4.84868
-4.84647
-4.84414
-4.98397
-4.98185
-4.97915
-4.9764
-5.11848
-5.11612
-5.11321
-5.1103
-5.25383
-5.25153
-5.24873
-5.24594
-5.38972
-5.38782
-5.38546
-5.38304
-5.52527
-5.52387
-5.52222
-5.52058
-5.6633
-5.66261
-5.66182
-5.66099
361.362
380.041
381.18
380.915
380.501
379.84
378.95
377.859
376.729
375.881
375.627
375.888
376.41
377.482
380.239
433.016
602.393
851.898
1122.53
336.939
373.176
380.606
380.784
380.2
379.476
378.633
377.766
376.957
376.374
376.168
376.204
376.654
375.497
402.442
501.357
645.612
826.537
1019.42
278.159
333.489
374.56
380.111
379.876
379.248
378.441
377.773
377.198
376.812
376.7
376.433
370.234
388.911
460.404
548.501
654.248
791.28
943.947
201.063
251.566
315.932
364.422
379.307
378.532
378.112
377.833
377.459
377.155
376.62
370.115
372.047
433.815
501.286
559.251
629.871
732.701
860.453
112.797
155.905
207.796
269.854
327.752
365.08
377.293
377.341
377.013
376.144
366.274
359.237
412.173
480.697
522.849
546.334
578.579
646.406
751.484
39.8986
61.3247
92.1917
135.234
188.582
251.419
306.962
332.556
337.664
332.017
331.046
389.219
466.849
530.384
544.861
520.314
503.395
531.347
614.256
0.279358
5.4126
16.0445
31.454
53.3992
85.1532
122.615
156.997
183.229
218.228
282.047
386.268
506.715
579.762
552.446
467.766
398.69
391.255
455.544
-1.07222
-1.1686
-1.28552
-0.621297
2.37979
9.1828
17.0845
26.6648
42.6897
75.6417
151.422
300.347
466.141
524.761
474.539
366.458
274.524
244.456
298.64
-1.20444
-1.18708
-1.17818
-1.25611
-1.45678
-1.63111
-1.65018
-1.01686
1.34738
7.46115
41.3894
144.213
285.225
355.335
339.061
262.208
196.935
169.253
197.516
-1.34748
-1.34964
-1.34261
-1.29624
-1.26826
-1.30085
-1.38238
-1.28266
-0.407513
0.810637
6.2987
23.551
54.0265
125.209
194.123
188.362
169.21
157.848
160.483
-1.4757
-1.47883
-1.47935
-1.47635
-1.47865
-1.48033
-1.44293
-1.28784
-0.997696
-0.936057
-1.61876
-5.04372
-0.149319
14.1841
50.1922
110.813
146.875
153.905
153.284
-1.60028
-1.5993
-1.5953
-1.58886
-1.5823
-1.56559
-1.51969
-1.4151
-1.25676
-1.25744
-1.9547
-3.302
-2.12091
-0.176348
3.13488
28.2725
97.7156
138.643
143.45
-1.72683
-1.72262
-1.7139
-1.69988
-1.67999
-1.64855
-1.59824
-1.52044
-1.4163
-1.4096
-1.8892
-2.17298
-1.84416
-1.61182
-1.12986
2.00803
40.7159
104.12
125.682
-1.85612
-1.84992
-1.83826
-1.82015
-1.79436
-1.7577
-1.70745
-1.64471
-1.58272
-1.62127
-1.91728
-2.06498
-1.99204
-1.86172
-1.87028
-1.67708
5.6092
51.6045
85.6724
-1.98834
-1.98115
-1.96823
-1.94893
-1.92244
-1.88732
-1.84363
-1.79673
-1.76414
-1.80778
-1.97775
-2.11938
-2.08939
-2.00909
-2.00228
-1.90929
-1.86345
11.6596
43.5228
-2.12356
-2.11631
-2.10351
-2.08493
-2.0605
-2.03013
-1.99553
-1.96316
-1.94645
-1.96895
-2.04886
-2.11791
-2.08931
-2.02397
-1.98457
-1.95435
-1.77852
-1.20071
11.9234
-2.26161
-2.2551
-2.24348
-2.22697
-2.20611
-2.18172
-2.15604
-2.13418
-2.12385
-2.13048
-2.15342
-2.15843
-2.10657
-2.02025
-1.93952
-1.92655
-1.79917
-1.35615
0.984625
-2.40205
-2.39687
-2.38721
-2.37361
-2.35704
-2.33882
-2.3211
-2.30723
-2.3005
-2.29991
-2.29802
-2.27157
-2.19456
-2.06636
-1.91363
-1.8457
-1.78234
-1.84851
1.75608
-2.54421
-2.54078
-2.53355
-2.52325
-2.51114
-2.49876
-2.48801
-2.48098
-2.47868
-2.47873
-2.47382
-2.44701
-2.37695
-2.24751
-2.05767
-1.91659
-1.68382
-0.217464
-0.105494
-2.68739
-2.6859
-2.68129
-2.67438
-2.66652
-2.65934
-2.65461
-2.65389
-2.65774
-2.665
-2.6724
-2.67308
-2.66302
-2.64306
-2.57761
-2.45702
-2.00241
-1.26902
-2.08841
-2.83094
-2.83138
-2.82933
-2.82561
-2.82154
-2.81876
-2.81905
-2.82399
-2.83482
-2.85269
-2.87974
-2.92129
-2.9976
-3.14263
-3.29126
-3.6027
-2.70066
-0.536876
5.53041
-2.97428
-2.97645
-2.97668
-2.97573
-2.97479
-2.97545
-2.97953
-2.98886
-3.00549
-3.03239
-3.0749
-3.14367
-3.26392
-3.48566
-3.49697
-4.25486
-5.21863
2.79938
28.6906
-3.11689
-3.12044
-3.1225
-3.12372
-3.12512
-3.12813
-3.13452
-3.14632
-3.16594
-3.19677
-3.24381
-3.31392
-3.41913
-3.58719
-3.45811
-4.04272
-5.77638
5.64341
41.9003
-3.25825
-3.26275
-3.26609
-3.26878
-3.27163
-3.27584
-3.28306
-3.2953
-3.31498
-3.34504
-3.38876
-3.44891
-3.5289
-3.63142
-3.4456
-3.37013
0.377575
15.7856
40.6007
-3.39795
-3.40293
-3.40694
-3.41035
-3.41375
-3.4181
-3.42482
-3.43587
-3.4536
-3.48052
-3.5187
-3.56846
-3.63282
-3.69072
-3.55556
-3.00794
7.16849
20.9963
28.9049
-3.53573
-3.5407
-3.54477
-3.54818
-3.55131
-3.55488
-3.56009
-3.56883
-3.58354
-3.60677
-3.64008
-3.68168
-3.73366
-3.75707
-3.73879
-3.17503
9.88245
18.3462
22.1292
-3.67148
-3.67601
-3.6796
-3.68238
-3.68459
-3.68675
-3.68978
-3.69558
-3.70699
-3.72717
-3.75809
-3.79646
-3.84116
-3.85938
-3.92198
-3.38064
9.80919
16.903
20.7508
-3.80525
-3.80897
-3.81169
-3.81339
-3.81427
-3.8148
-3.81542
-3.81818
-3.8266
-3.84514
-3.87721
-3.91968
-3.96434
-3.98163
-4.07665
-3.82633
7.55347
14.7494
20.692
-3.93721
-3.93986
-3.94142
-3.9418
-3.94113
-3.93993
-3.93876
-3.93915
-3.94578
-3.96379
-3.99815
-4.04689
-4.0952
-4.09896
-4.18668
-4.08498
6.25753
12.7059
18.9904
-4.06762
-4.06902
-4.06929
-4.06826
-4.06598
-4.06297
-4.06067
-4.05984
-4.06568
-4.08351
-4.11897
-4.17264
-4.22853
-4.22904
-4.37348
-4.31622
6.14982
12.092
18.9938
-4.19682
-4.19691
-4.19589
-4.19352
-4.18982
-4.18533
-4.18177
-4.18072
-4.1857
-4.20126
-4.23515
-4.29198
-4.35731
-4.37971
-4.69232
-4.64066
6.14767
12.4625
20.3769
-4.32524
-4.32403
-4.3218
-4.3183
-4.31354
-4.30813
-4.30361
-4.30331
-4.30781
-4.3176
-4.34563
-4.40013
-4.46368
-4.48955
-4.77418
-4.4785
6.00276
13.1573
22.3932
-4.45333
-4.4509
-4.44763
-4.44324
-4.43779
-4.432
-4.42752
-4.42815
-4.43429
-4.43947
-4.46014
-4.5055
-4.55809
-4.57014
-4.40568
-3.91795
5.30304
12.8135
19.445
-4.58159
-4.57809
-4.57395
-4.56888
-4.56303
-4.55716
-4.55312
-4.55428
-4.56108
-4.5704
-4.58925
-4.62443
-4.65732
-4.66531
-4.58081
-4.66043
2.7334
10.1617
15.186
-4.71054
-4.70615
-4.7013
-4.69572
-4.68957
-4.68351
-4.67933
-4.67955
-4.68465
-4.70143
-4.72467
-4.75815
-4.78229
-4.78182
-4.89132
-5.08884
-0.72773
6.06028
10.9411
-4.84068
-4.83561
-4.83022
-4.82424
-4.81776
-4.81142
-4.80647
-4.80476
-4.80807
-4.82233
-4.85031
-4.88865
-4.92868
-4.94275
-5.07307
-5.14698
-3.80121
2.10974
7.32724
-4.97244
-4.96697
-4.96125
-4.955
-4.94825
-4.94148
-4.93566
-4.93212
-4.93278
-4.94162
-4.96605
-5.00652
-5.05617
-5.0881
-5.10899
-5.36785
-5.83094
-2.14938
2.72768
-5.10614
-5.1006
-5.09483
-5.08853
-5.08164
-5.07452
-5.06788
-5.06274
-5.06079
-5.06534
-5.08123
-5.11448
-5.16222
-5.20297
-5.17871
-5.33012
-5.79446
-6.78943
-3.4851
-5.24192
-5.23666
-5.23116
-5.22511
-5.21841
-5.21126
-5.20418
-5.19786
-5.19362
-5.19411
-5.20373
-5.2283
-5.27494
-5.34696
-5.44493
-5.48308
-6.76345
-9.51593
-9.28966
-5.37944
-5.37482
-5.36996
-5.36457
-5.3585
-5.35189
-5.34507
-5.33838
-5.33266
-5.32971
-5.33288
-5.34785
-5.38489
-5.45321
-5.57616
-5.5604
-6.95637
-9.87388
-13.1699
-5.51814
-5.51466
-5.51089
-5.50664
-5.50175
-5.49624
-5.49022
-5.484
-5.47804
-5.47312
-5.471
-5.47508
-5.4912
-5.53237
-5.59093
-5.56391
-5.87762
-6.0606
-43.1178
-5.65969
-5.65767
-5.65556
-5.65328
-5.65069
-5.64768
-5.64412
-5.63995
-5.63513
-5.62995
-5.62527
-5.6232
-5.62908
-5.65987
-5.76788
-6.06201
-6.16038
-10.2694
-84.0072
)
;

boundaryField
{
    leftWall
    {
        type            calculated;
        value           nonuniform List<scalar> 
50
(
563.46
504.361
444.336
384.259
324.521
265.045
205.701
146.484
63.1208
4.21429
-0.313368
-0.415721
-0.554887
-0.688034
-0.827255
-0.96651
-1.10628
-1.24612
-1.38586
-1.52538
-1.66459
-1.80353
-1.94222
-2.08069
-2.219
-2.35716
-2.4952
-2.63314
-2.77099
-2.90877
-3.0465
-3.18419
-3.32186
-3.4595
-3.59714
-3.73478
-3.87243
-4.0101
-4.14778
-4.28547
-4.42317
-4.56087
-4.69854
-4.83619
-4.97379
-5.11131
-5.24883
-5.38689
-5.52515
-5.65816
)
;
    }
    rightWall
    {
        type            calculated;
        value           nonuniform List<scalar> 
50
(
2983.95
2751.19
2429.01
2099.37
1807.36
1575.94
1395.52
1264.36
1122.53
1019.42
943.947
860.453
751.484
614.256
455.544
298.64
197.516
160.483
153.284
143.45
125.682
85.6724
43.5228
11.9234
0.984625
1.75608
-0.105494
-2.08841
5.53041
28.6906
41.9003
40.6007
28.9049
22.1292
20.7508
20.692
18.9904
18.9938
20.3769
22.3932
19.445
15.186
10.9411
7.32724
2.72768
-3.4851
-9.28966
-13.1699
-43.1178
-84.0072
)
;
    }
    lowerWall
    {
        type            calculated;
        value           nonuniform List<scalar> 
62
(
592.889
591.654
597.288
606.57
617.405
628.841
640.957
654.057
668.428
684.224
701.468
720.104
740.043
761.179
783.437
806.714
830.891
855.632
880.089
902.211
915.64
919.397
938.704
910.325
850.239
793.704
741.075
691.128
642.759
591.218
533.88
437.789
444.827
455.046
453.069
382.391
382.316
382.241
382.173
382.116
382.044
381.808
374.577
382.42
382.406
382.329
382.301
382.293
382.211
381.936
381.48
381.078
379.973
379.188
382.58
388.859
399.917
405.337
465.431
1165.51
2537.7
3005.99
)
;
    }
    atmosphere
    {
        type            calculated;
        value           nonuniform List<scalar> 
46
(
-5.73053
-5.74047
-5.74164
-5.74162
-5.74147
-5.74129
-5.74108
-5.74085
-5.74058
-5.74027
-5.73992
-5.73954
-5.73911
-5.73864
-5.73815
-5.73763
-5.7371
-5.73658
-5.73609
-5.73566
-5.73531
-5.73502
-5.73475
-5.7345
-5.73424
-5.73383
-5.73331
-5.73235
-5.7312
-5.73037
-5.72981
-5.72946
-5.72925
-5.72914
-5.72909
-5.7291
-5.7292
-5.72962
-5.7311
-5.73531
-5.74499
-5.75929
-5.75104
-5.72904
-5.72904
-319.815
)
;
    }
    defaultFaces
    {
        type            empty;
    }
}


// ************************************************************************* //
