/*--------------------------------*- C++ -*----------------------------------*\
| =========                 |                                                 |
| \\      /  F ield         | OpenFOAM: The Open Source CFD Toolbox           |
|  \\    /   O peration     | Version:  v2012                                 |
|   \\  /    A nd           | Website:  www.openfoam.com                      |
|    \\/     M anipulation  |                                                 |
\*---------------------------------------------------------------------------*/
FoamFile
{
    version     2.0;
    format      ascii;
    class       volScalarField;
    location    "0.55";
    object      p_rgh;
}
// * * * * * * * * * * * * * * * * * * * * * * * * * * * * * * * * * * * * * //

dimensions      [1 -1 -2 0 0 0 0];


internalField   nonuniform List<scalar> 
2268
(
592.889
591.654
597.288
606.57
617.405
628.841
640.957
654.057
668.428
684.224
701.468
720.104
740.043
761.179
783.437
806.714
830.891
855.632
880.089
902.211
915.64
919.397
938.704
592.649
590.426
595.131
603.753
614.181
625.511
637.741
651.078
665.739
681.846
699.41
718.375
738.667
760.198
782.892
806.776
831.756
857.65
883.558
906.743
921.906
916.081
937.998
591.482
589.335
593.822
601.527
611.273
622.275
634.442
647.893
662.771
679.165
697.062
716.394
737.1
759.109
782.368
806.88
832.583
859.183
885.746
909.327
926.324
917.49
939.985
590.265
588.451
592.896
599.904
608.996
619.573
631.536
644.957
659.944
676.555
694.745
714.42
735.526
758.001
781.779
806.811
832.981
859.867
886.53
910.174
927.818
930.02
946.745
589.385
588.261
592.164
598.585
607.072
617.186
628.862
642.165
657.184
673.967
692.421
712.415
733.903
756.827
781.099
806.61
833.147
860.166
886.792
910.561
928.934
937.17
955.776
588.768
588.285
591.454
597.298
605.201
614.819
626.156
639.29
654.308
671.25
689.968
710.271
732.136
755.514
780.302
806.331
833.274
860.449
887.099
911.098
930.125
943.006
966.212
588.283
588.058
590.425
595.693
603.035
612.15
623.136
636.092
651.122
668.273
687.305
707.934
730.187
754.038
779.383
806.016
833.464
860.882
887.67
911.952
931.399
948.054
973.483
587.925
586.858
588.031
592.723
599.679
608.464
619.206
632.064
647.216
664.76
684.288
705.34
728.044
752.425
778.384
805.705
833.734
861.493
888.532
913.095
932.57
949.458
974.959
382.42
382.406
382.329
382.301
382.293
382.211
381.936
381.48
381.078
379.973
379.188
382.58
388.859
399.917
405.337
465.431
1165.51
2537.7
3005.99
382.404
382.39
382.322
382.313
382.323
382.263
381.995
381.544
381.091
378.533
375.07
375.482
377.229
379.153
377.959
408.505
860.43
2176.43
2838.38
382.388
382.394
382.328
382.305
382.282
382.18
381.839
381.554
379.363
375.688
374.418
375.48
377.367
378.691
378.816
392.494
625.149
1767.75
2575.08
382.379
382.424
382.341
382.262
382.153
381.94
381.56
380.31
377.258
374.723
374.254
375.498
377.295
378.203
378.907
389.872
521.491
1471.26
2304.09
382.384
382.476
382.353
382.18
381.966
381.626
380.957
379.118
376.594
374.732
374.442
375.641
377.234
377.986
379.164
389.859
578.098
1343.59
2070.86
382.413
382.522
382.329
382.053
381.75
381.272
380.385
378.713
376.625
375.055
374.798
375.814
377.147
377.827
379.3
390.595
741.991
1297.01
1897.94
382.885
386.859
382.251
381.871
381.526
380.953
380.027
378.553
376.813
375.467
375.2
375.986
377.057
377.749
379.391
431.332
865.071
1300.7
1776.84
482.215
394.246
381.755
381.67
381.313
380.693
379.771
378.466
376.997
375.868
375.595
376.156
376.967
377.812
381.465
636.564
978.993
1323.56
1705.08
521.868
493.701
483.342
493.857
513.901
539.043
566.626
595.499
624.739
653.139
678.217
700.343
723.942
749.441
776.693
805.261
834.327
862.722
890.357
915.562
935
945.506
942.314
52.0775
47.2415
53.6016
65.2498
82.3488
105.433
136.54
178.678
235.886
313.379
412.852
513.276
607.667
693.4
762.561
804.353
836.821
866.127
895.574
924.033
947.54
965.439
982.243
0.470488
0.525517
0.545321
0.554897
0.561503
0.562806
0.558384
0.551701
0.54818
0.555886
0.647955
21.9198
73.006
156.428
306.294
537.402
794.275
871.912
903.666
936.96
963.588
987.404
1010.34
0.493328
0.495206
0.507736
0.516238
0.522653
0.526847
0.528821
0.529422
0.530546
0.536682
0.554943
0.569066
0.537061
0.497594
0.513042
12.8356
76.5268
243.938
577.448
942.036
984.9
1010.36
1035.71
0.479358
0.482115
0.489999
0.498234
0.503756
0.507077
0.509033
0.510522
0.512908
0.518026
0.524176
0.512898
0.499289
0.494572
0.505118
0.508105
0.431481
0.304992
19.7495
114.505
334.868
683.017
1032.89
0.471405
0.472162
0.475951
0.480824
0.484612
0.487184
0.488957
0.49051
0.492598
0.495787
0.498527
0.49386
0.486591
0.478574
0.47291
0.457556
0.437655
0.432399
0.388594
0.240568
0.112494
17.6839
93.119
0.45738
0.458389
0.460645
0.463565
0.466074
0.467976
0.469414
0.470649
0.471976
0.473449
0.474129
0.47124
0.465554
0.458295
0.449907
0.435478
0.415435
0.395591
0.380446
0.364394
0.351096
0.314779
0.249477
0.443319
0.444057
0.445272
0.446895
0.448417
0.449667
0.450659
0.451465
0.452139
0.452552
0.452095
0.44956
0.444991
0.438846
0.430966
0.419038
0.401924
0.382172
0.361132
0.33836
0.324468
0.329196
0.336154
0.428739
0.429237
0.429747
0.430504
0.431305
0.432014
0.432587
0.433005
0.433219
0.433065
0.432141
0.429855
0.42609
0.420875
0.413933
0.40423
0.391292
0.37624
0.359038
0.340154
0.325553
0.319466
0.312159
0.414098
0.414196
0.414162
0.414333
0.414627
0.414929
0.415168
0.415289
0.41521
0.414777
0.413724
0.411716
0.40859
0.404224
0.398367
0.390538
0.380601
0.369079
0.356274
0.342802
0.331176
0.322861
0.315959
0.399549
0.399249
0.398758
0.398511
0.398439
0.398437
0.398427
0.398339
0.398087
0.397543
0.396523
0.394811
0.392245
0.388677
0.383906
0.377681
0.369953
0.361021
0.351271
0.341312
0.332397
0.325298
0.319788
0.38523
0.384575
0.383722
0.383153
0.382808
0.382578
0.382382
0.382154
0.381813
0.381256
0.380348
0.378935
0.376876
0.374028
0.370232
0.365334
0.359311
0.352344
0.344754
0.337053
0.33005
0.324304
0.319938
0.371208
0.370261
0.369129
0.368317
0.367762
0.367355
0.367023
0.366703
0.366326
0.36581
0.36505
0.363928
0.362321
0.360102
0.357135
0.353306
0.34859
0.343105
0.337095
0.330966
0.325309
0.320574
0.317021
0.357467
0.356323
0.355
0.354005
0.353286
0.352742
0.352308
0.35193
0.351549
0.351098
0.350494
0.34964
0.34843
0.346745
0.344464
0.341483
0.337766
0.33338
0.328513
0.323492
0.318787
0.314791
0.311811
0.343974
0.342733
0.341301
0.340179
0.339335
0.338684
0.338173
0.337758
0.337389
0.33701
0.336552
0.335932
0.335055
0.333811
0.332083
0.329766
0.326804
0.323226
0.319171
0.314909
0.310842
0.307325
0.304671
0.33069
0.329437
0.327971
0.326774
0.325841
0.325111
0.324544
0.324105
0.323753
0.323441
0.323106
0.322677
0.322065
0.321165
0.319863
0.318047
0.315641
0.312639
0.309139
0.305363
0.301668
0.298376
0.295778
0.31758
0.316378
0.314937
0.313711
0.312725
0.311943
0.311338
0.310886
0.310551
0.310293
0.310057
0.309773
0.309358
0.308709
0.307711
0.306246
0.304222
0.301602
0.298447
0.294937
0.291389
0.288092
0.285294
0.304615
0.303503
0.302129
0.300911
0.299904
0.299095
0.298471
0.298014
0.297696
0.29748
0.297316
0.297137
0.296858
0.296376
0.295575
0.29433
0.292534
0.290128
0.287141
0.283716
0.280131
0.276637
0.273431
0.29177
0.290767
0.289483
0.288301
0.287301
0.286488
0.285861
0.285408
0.285106
0.28492
0.284805
0.284693
0.284499
0.284116
0.283423
0.282288
0.280592
0.27826
0.275293
0.271804
0.268033
0.264196
0.26043
0.279028
0.278133
0.27695
0.275823
0.27485
0.274053
0.273437
0.272995
0.272706
0.27254
0.27245
0.272371
0.272217
0.271876
0.271219
0.270107
0.26841
0.26604
0.262977
0.259306
0.255235
0.250946
0.246522
0.26637
0.265572
0.264489
0.263428
0.2625
0.261735
0.261142
0.260716
0.260439
0.26028
0.260195
0.260118
0.259961
0.25961
0.258928
0.25777
0.255996
0.253505
0.250262
0.246327
0.241882
0.237078
0.231949
0.25378
0.253062
0.252072
0.251082
0.250211
0.249492
0.248934
0.248531
0.248264
0.248103
0.248003
0.247899
0.247701
0.247293
0.246536
0.245276
0.243368
0.240702
0.237229
0.232991
0.228146
0.222817
0.216997
0.241244
0.240587
0.239677
0.23876
0.237954
0.237291
0.236778
0.236405
0.23615
0.235983
0.235856
0.235702
0.235433
0.23493
0.234054
0.232651
0.230572
0.227702
0.223984
0.219445
0.214222
0.208419
0.201998
0.228747
0.228135
0.227293
0.226444
0.225706
0.225107
0.224647
0.224311
0.224075
0.223901
0.22374
0.223525
0.223164
0.222542
0.22152
0.219947
0.217677
0.214595
0.210644
0.205842
0.200311
0.194137
0.187276
0.216279
0.2157
0.21491
0.214122
0.213452
0.212921
0.212519
0.212228
0.212015
0.21184
0.211647
0.211367
0.210909
0.210158
0.208978
0.207225
0.204761
0.201478
0.197326
0.192325
0.186589
0.180198
0.173086
0.203828
0.203274
0.202522
0.201785
0.20118
0.200715
0.200376
0.200133
0.19995
0.19978
0.199563
0.199226
0.198677
0.197801
0.196469
0.194543
0.191898
0.188442
0.184137
0.179017
0.173197
0.166761
0.159625
0.191384
0.19085
0.190123
0.189428
0.188881
0.188482
0.188203
0.188011
0.187863
0.187706
0.187475
0.187095
0.186469
0.185486
0.184021
0.181944
0.179148
0.175559
0.171163
0.166014
0.16024
0.153932
0.147015
0.178938
0.178419
0.177707
0.177046
0.176553
0.176213
0.175992
0.17585
0.17574
0.175604
0.175372
0.174965
0.174285
0.173219
0.171648
0.169456
0.16655
0.162882
0.158467
0.153386
0.147788
0.141783
0.135313
0.16648
0.16597
0.16527
0.164639
0.164192
0.163906
0.163738
0.163644
0.163573
0.163464
0.163244
0.162827
0.162115
0.160995
0.159355
0.157089
0.154125
0.150442
0.146085
0.14117
0.135876
0.130336
0.124521
0.154007
0.153502
0.152813
0.152208
0.151801
0.15156
0.151439
0.151389
0.151358
0.151281
0.151082
0.150672
0.14995
0.148807
0.147135
0.144843
0.141877
0.138244
0.134023
0.129368
0.124493
0.119562
0.114581
0.141522
0.141017
0.140339
0.139756
0.13938
0.139176
0.139094
0.139085
0.139093
0.13905
0.138879
0.138489
0.13778
0.136643
0.134979
0.132707
0.129794
0.126273
0.122259
0.117947
0.113587
0.109382
0.105373
0.129026
0.128517
0.12785
0.127282
0.126929
0.126754
0.126705
0.126731
0.126774
0.126766
0.126629
0.126271
0.125593
0.124492
0.122871
0.120662
0.117851
0.114498
0.110751
0.106847
0.103074
0.099671
0.096722
0.116524
0.115997
0.115342
0.114782
0.114444
0.114291
0.114269
0.114325
0.114399
0.114425
0.114324
0.114008
0.113381
0.11234
0.110794
0.108687
0.10602
0.10288
0.099447
0.0959938
0.0928465
0.0902755
0.0884113
0.104021
0.10344
0.1028
0.102243
0.101916
0.10178
0.10178
0.10186
0.101962
0.102019
0.101958
0.101694
0.101132
0.100173
0.0987332
0.0967619
0.0942764
0.0913843
0.0882946
0.08531
0.0827873
0.0810282
0.0802074
0.0915383
0.0908159
0.0901962
0.0896451
0.0893295
0.0892127
0.0892329
0.0893337
0.0894588
0.0895464
0.0895269
0.0893201
0.0888358
0.0879802
0.0866721
0.0848694
0.0825989
0.0799825
0.0772488
0.0747243
0.0727896
0.0717718
0.0718863
0.0790867
0.0780748
0.0774912
0.0769597
0.076667
0.0765762
0.0766191
0.0767395
0.0768856
0.0770017
0.0770242
0.0768792
0.0764832
0.0757486
0.0745997
0.0729982
0.0709741
0.0686548
0.0662785
0.0641858
0.0627715
0.0623792
0.063257
0.0666765
0.0651434
0.064617
0.0641422
0.0639021
0.0638551
0.0639279
0.0640684
0.0642332
0.0643752
0.0644389
0.0643593
0.0640617
0.0634664
0.0625032
0.0611347
0.0593885
0.0573873
0.0553671
0.0536679
0.0526841
0.0527643
0.0541793
0.0543559
0.0519534
0.051481
0.0511344
0.0509991
0.0510223
0.0511345
0.0512958
0.0514768
0.0516421
0.051747
0.051737
0.0515479
0.0511091
0.050356
0.0492516
0.0478167
0.0461607
0.0445015
0.0431593
0.0425085
0.0428877
0.04458
0.0420275
0.0384877
0.0380276
0.0379475
0.0379887
0.0381009
0.0382546
0.0384343
0.038628
0.0388143
0.0389609
0.0390248
0.0389532
0.0386856
0.0381647
0.0373547
0.0362678
0.0349924
0.0337126
0.0327062
0.032304
0.0328143
0.0345053
0.0291621
0.0244917
0.024141
0.0247891
0.0251409
0.0253332
0.0255068
0.0256915
0.0258899
0.0260934
0.0262813
0.0264225
0.0264759
0.0263927
0.0261252
0.0256413
0.0249443
0.0240953
0.0232316
0.0225681
0.0223676
0.0228812
0.0243114
0.016094
0.00816889
0.00898849
0.0115675
0.012446
0.012693
0.0128562
0.0130297
0.0132261
0.0134455
0.0136768
0.0138998
0.0140855
0.0141994
0.0142066
0.0140809
0.0138169
0.0134457
0.0130493
0.0127652
0.0127679
0.0132338
0.0143441
0.00828646
-0.0132516
-0.00836178
-0.00386889
-0.00275718
-0.00244113
-0.00224372
-0.0020502
-0.00182884
-0.00156968
-0.00127492
-0.000953198
-0.000617293
-0.000283097
3.19269e-05
0.000311057
0.000542161
0.000724002
0.000873581
0.00103144
0.00125969
0.0016327
0.00225082
908.442
915.481
925.775
923.933
989.407
994.168
997.56
996.465
1022.24
1029.27
1036.83
1045.16
1050.61
1061.3
1073.56
1086.71
1092.25
1099.2
1109.41
1122.35
192.821
280.184
402.334
594.887
0.212292
0.168895
0.160893
2.22887
0.345122
0.350805
0.358159
0.363541
0.301976
0.299243
0.303198
0.31232
0.312865
0.311397
0.310863
0.310997
0.316615
0.314484
0.312834
0.31143
0.317002
0.314902
0.313076
0.311498
0.314317
0.312304
0.310547
0.309166
0.309243
0.307268
0.305597
0.3044
0.302078
0.300002
0.298275
0.297108
0.292935
0.290569
0.288576
0.287226
0.281967
0.27912
0.276643
0.27489
0.26944
0.265973
0.262833
0.260487
0.255684
0.251537
0.247645
0.244588
0.240995
0.236181
0.231549
0.227767
0.225655
0.220231
0.214942
0.21051
0.209995
0.204047
0.198219
0.193272
0.194413
0.188059
0.181838
0.176532
0.1793
0.172702
0.16626
0.160767
0.164973
0.158327
0.151867
0.146375
0.151639
0.145158
0.138902
0.133615
0.139414
0.133303
0.127469
0.122592
0.128336
0.122782
0.117565
0.113277
0.118387
0.113553
0.109117
0.105563
0.109473
0.105494
0.101968
0.0992579
0.101432
0.0984074
0.0958829
0.0940828
0.0940317
0.0920209
0.0905457
0.0896837
0.0869879
0.0860035
0.0855808
0.0856449
0.0799934
0.0799951
0.0805765
0.0815133
0.0727481
0.0736359
0.0751144
0.0768245
0.0649854
0.0665968
0.0688022
0.0711351
0.0565014
0.0586172
0.0613179
0.0640695
0.0471847
0.0495417
0.0524522
0.0553659
0.0370317
0.0393299
0.0421273
0.0449179
0.026331
0.0282383
0.030598
0.0330088
0.0159738
0.0173799
0.019031
0.0206727
0.00313859
0.00383117
0.00462683
0.00545076
771.308
382.6
381.715
381.448
381.035
380.374
379.483
378.393
377.263
376.416
376.16
376.422
376.939
378.262
505.003
899.243
1135.49
1385.21
1654.74
973.199
495.319
381.277
381.443
380.859
380.135
379.292
378.424
377.616
377.032
376.827
376.861
377.333
521.948
992.635
1159.35
1304.09
1485.03
1611.59
1062.01
981.068
399.933
380.903
380.662
380.032
379.225
378.557
377.982
377.596
377.484
377.217
574.711
1131.08
1243.34
1332.09
1437.91
1574.94
1599.23
1110.11
1160.62
1038.12
535.639
380.261
379.44
379.021
378.742
378.368
378.064
377.529
492.206
1115.3
1339.84
1409.21
1467.75
1538.66
1641.52
1619.5
1147.04
1190.15
1242.03
1240.49
951.97
511.478
378.372
378.382
378.048
377.179
490.922
1129.16
1436.06
1507.56
1553.64
1579.3
1607.1
1680.35
1613.93
962.82
1220.62
1250.68
1292.79
1344.34
1313.79
1087.43
839.164
822.746
955.394
1320.04
1536.12
1613.77
1678.19
1584.34
1563.12
1639.3
1683.78
1581.01
36.2756
181.692
495.324
887.069
1206.44
1268.45
1305.92
1330.34
1364.51
1421.82
1501.66
1615.61
1631.95
1369.96
1342.74
1437.08
1674.64
1668
1548.98
0.337601
0.24123
0.124236
34.1494
158.07
408.645
661.246
831.939
885.539
920.448
982.034
963.066
819.63
878.285
1455.21
1687.17
1625.51
1592.63
1542.46
0.330581
0.347943
0.356833
0.279545
0.106576
0.0666573
3.9113
26.2128
44.4691
67.6607
129.135
257.327
935.693
1708.54
1692.47
1530.88
769.607
611.572
1369.41
0.312745
0.310581
0.317613
0.363967
0.39138
0.360977
0.29457
0.491387
1.89233
5.91453
20.4629
81.0549
842.044
1472.56
1656.24
1204.01
294.741
278.873
487.576
0.309728
0.306587
0.306064
0.309065
0.306761
0.305158
0.343904
0.518556
0.910142
1.5382
5.11342
61.0067
115.488
247.166
866.673
1207.07
422.399
275.902
271.969
0.310331
0.311306
0.315306
0.321747
0.328308
0.34502
0.391008
0.496758
0.672172
1.1569
7.50088
13.3629
-0.0832983
2.53468
19.591
567.221
918.699
713.768
270.458
0.308976
0.31318
0.321897
0.335926
0.35581
0.38725
0.437566
0.515582
0.624319
1.25703
2.97198
-0.00295432
0.217576
0.440633
1.39294
185.807
929.43
995.724
314.813
0.304873
0.311079
0.32274
0.340848
0.366636
0.403296
0.453551
0.516339
0.595267
0.920288
0.399788
0.123136
0.188243
0.30063
0.289232
0.50502
485.221
995.696
1031.82
0.297854
0.305039
0.317957
0.337261
0.363752
0.398866
0.442559
0.489496
0.528865
0.485844
0.34646
0.186394
0.212582
0.279168
0.284078
0.376697
0.445954
920.837
1042.93
0.287829
0.295071
0.307876
0.326454
0.350888
0.381253
0.41586
0.448232
0.465246
0.443877
0.370512
0.298877
0.328042
0.387892
0.426958
0.457205
8.80389
54.2199
874.762
0.274969
0.281483
0.293096
0.309607
0.33047
0.354858
0.38054
0.402402
0.412743
0.406362
0.384745
0.378908
0.430143
0.51646
0.597188
0.610377
6.35449
18.4275
165.169
0.259725
0.264907
0.274563
0.288169
0.304735
0.322952
0.340676
0.354541
0.361277
0.361907
0.364072
0.390364
0.467362
0.595545
0.748294
0.820355
0.971114
118.647
365.074
0.242757
0.246193
0.253424
0.263719
0.275827
0.288213
0.29896
0.305991
0.308293
0.308251
0.313212
0.340009
0.410152
0.539614
0.731584
0.915385
1.69051
122.117
554.024
0.224775
0.226263
0.230873
0.237785
0.245645
0.252829
0.257551
0.258277
0.254426
0.247166
0.239775
0.239115
0.249202
0.269635
0.529775
4.37733
3.96107
18.0729
579.928
0.206421
0.205979
0.208029
0.211752
0.215823
0.218633
0.218351
0.213367
0.202543
0.184667
0.157627
0.116076
0.0397801
-0.104619
0.00635735
13.8199
44.0913
24.4918
613.826
0.188268
0.186104
0.185872
0.186827
0.187771
0.187188
0.183117
0.173717
0.157068
0.130166
0.0876574
0.0188897
-0.101135
-0.318648
-0.26983
14.4205
340.709
67.7479
703.901
0.170856
0.167311
0.165245
0.164027
0.162646
0.159716
0.153323
0.14152
0.121818
0.090981
0.0439419
-0.0261732
-0.131329
-0.291542
-0.168859
40.5524
487.692
505.679
744.859
0.154689
0.150193
0.14685
0.144167
0.141332
0.137185
0.129986
0.11773
0.0979691
0.0679056
0.0242065
-0.0359603
-0.115956
-0.216838
-0.0311397
128.974
532.261
710.502
742.222
0.140182
0.135208
0.131199
0.127801
0.124408
0.120068
0.113392
0.102329
0.084548
0.0576218
0.0194427
-0.0303149
-0.0918074
-0.150991
-0.0157768
292.226
538.218
537.001
312.529
0.127601
0.12263
0.118559
0.115168
0.112043
0.108453
0.103245
0.0945307
0.079791
0.0565629
0.0232472
-0.0135155
-0.0650093
-0.0918537
-0.0737141
355.247
533.445
286.709
306.283
0.117043
0.11252
0.108922
0.106154
0.103958
0.101776
0.0987498
0.0929499
0.0815357
0.0613564
0.030437
-0.00180874
-0.0480912
-0.06902
-0.131555
292.556
537.607
270.538
346.331
0.108469
0.104745
0.102034
0.100329
0.0994632
0.0989197
0.0990405
0.0955468
0.0871182
0.068578
0.0365102
0.000367891
-0.0484897
-0.0660447
-0.161045
204.886
522.2
273.491
430.442
0.101705
0.0990552
0.0974971
0.097114
0.0977882
0.0989868
0.152134
0.168468
0.192558
0.139948
0.0701845
-0.00475963
-0.054362
-0.058128
-0.14584
204.242
519.791
279.392
442.102
0.0964893
0.0950852
0.0948145
0.0958455
0.0981273
0.101134
0.155952
0.224103
0.21773
0.199358
0.0882003
-0.00650153
-0.0624444
-0.0629524
-0.2074
284.203
502.972
287.044
455.288
0.0924792
0.0923915
0.0934159
0.0957833
0.099482
0.103974
0.122584
0.232022
0.186898
0.112463
0.063393
-0.00060862
-0.0659665
-0.0883691
-0.400985
398.502
542.008
296.427
470.082
0.0892608
0.0904722
0.0926978
0.0962008
0.100955
0.106364
0.110885
0.19988
0.169306
0.100088
0.0711073
0.0164789
-0.0470802
-0.0729532
4.08553
501.214
557.503
308.028
485.224
0.0863658
0.0887888
0.0920608
0.096455
0.101898
0.107691
0.112169
0.112246
0.208592
0.34063
0.575334
0.168116
-0.0162282
-0.0282891
11.7309
536.548
572.444
309.551
246.087
0.0832947
0.0867917
0.0909377
0.0960032
0.101859
0.107728
0.111835
0.110681
0.109569
1.18336
1.22798
1.21098
0.235498
0.00251257
0.101552
395.968
585.43
278.448
207.648
0.0795362
0.0839308
0.0887848
0.094364
0.100515
0.106572
0.110968
0.110669
0.105548
0.694415
1.26455
1.23239
1.20784
0.21796
-0.0763093
217.696
593.606
265.068
208.323
0.0745946
0.0796659
0.0850561
0.0910379
0.097514
0.103907
0.10899
0.110678
0.107232
0.0931165
0.748498
1.2571
1.20957
0.24628
-0.148721
66.3145
594.949
284.061
209.679
0.0680319
0.0735045
0.0792211
0.0854673
0.0922247
0.0990157
0.104849
0.108412
0.107701
0.0988581
0.0789883
0.440396
0.392461
0.0886876
-0.0674145
-0.327143
424.703
312.402
210.039
0.0595197
0.0650657
0.0708387
0.0771391
0.0840266
0.0911437
0.0977972
0.102967
0.10488
0.10033
0.0845195
0.0518193
0.00415314
-0.0295088
-0.0101777
-0.16442
212.211
279.013
209.21
0.0489361
0.0542035
0.0597039
0.065748
0.0724517
0.0795955
0.0866865
0.093024
0.0972479
0.0967509
0.0871247
0.062576
0.0159392
-0.0560844
-0.153931
-0.192201
-1.47259
281.059
361.576
0.0366179
0.0412367
0.0460911
0.0514816
0.0575508
0.0641678
0.0709848
0.077672
0.0833966
0.0863484
0.0831738
0.0682042
0.0311612
-0.0371475
-0.160108
-0.144352
-1.54035
419.118
442.115
0.0231127
0.0265833
0.030359
0.034613
0.0394958
0.0450034
0.0510281
0.057253
0.063209
0.0681314
0.0702443
0.0661707
0.0500545
0.00890058
-0.0496599
-0.0226587
-0.336375
229.258
421.631
0.0067555
0.00877208
0.0108863
0.0131643
0.0157487
0.0187643
0.0223218
0.0264976
0.0313112
0.0364969
0.0411706
0.0432473
0.0373592
0.00659307
-0.101384
-0.39556
-0.493937
-4.60297
232.314
)
;

boundaryField
{
    leftWall
    {
        type            fixedFluxPressure;
        gradient        uniform 0;
        value           nonuniform List<scalar> 
50
(
592.889
592.649
591.482
590.265
589.385
588.768
588.283
587.925
521.868
52.0775
0.470488
0.493328
0.479358
0.471405
0.45738
0.443319
0.428739
0.414098
0.399549
0.38523
0.371208
0.357467
0.343974
0.33069
0.31758
0.304615
0.29177
0.279028
0.26637
0.25378
0.241244
0.228747
0.216279
0.203828
0.191384
0.178938
0.16648
0.154007
0.141522
0.129026
0.116524
0.104021
0.0915383
0.0790867
0.0666765
0.0543559
0.0420275
0.0291621
0.016094
0.00828646
)
;
    }
    rightWall
    {
        type            fixedFluxPressure;
        gradient        uniform 0;
        value           nonuniform List<scalar> 
50
(
3005.99
2838.38
2575.08
2304.09
2070.86
1897.94
1776.84
1705.08
1654.74
1611.59
1599.23
1619.5
1613.93
1581.01
1548.98
1542.46
1369.41
487.576
271.969
270.458
314.813
1031.82
1042.93
874.762
165.169
365.074
554.024
579.928
613.826
703.901
744.859
742.222
312.529
306.283
346.331
430.442
442.102
455.288
470.082
485.224
246.087
207.648
208.323
209.679
210.039
209.21
361.576
442.115
421.631
232.314
)
;
    }
    lowerWall
    {
        type            fixedFluxPressure;
        gradient        uniform 0;
        value           nonuniform List<scalar> 
62
(
592.889
591.654
597.288
606.57
617.405
628.841
640.957
654.057
668.428
684.224
701.468
720.104
740.043
761.179
783.437
806.714
830.891
855.632
880.089
902.211
915.64
919.397
938.704
938.704
937.998
939.985
946.745
955.776
966.212
973.483
974.959
908.442
915.481
925.775
923.933
382.42
382.404
382.388
382.379
382.384
382.413
382.885
482.215
382.42
382.406
382.329
382.301
382.293
382.211
381.936
381.48
381.078
379.973
379.188
382.58
388.859
399.917
405.337
465.431
1165.51
2537.7
3005.99
)
;
    }
    atmosphere
    {
        type            totalPressure;
        rho             rho;
        psi             none;
        gamma           1;
        p0              uniform 0;
        value           nonuniform List<scalar> 
46
(
-0.0014868
-0.0114279
-0.0126
-0.0125818
-0.0124299
-0.0122452
-0.0120401
-0.0118071
-0.0115389
-0.0112316
-0.0108836
-0.0104951
-0.0100673
-0.0096029
-0.00910697
-0.00858815
-0.0080599
-0.00754099
-0.00705452
-0.0066242
-0.00626657
-0.00597725
-0.0057128
-0.00546322
-0.00519635
-0.00479141
-0.00426524
-0.00331048
-0.00216439
-0.00132999
-0.000772759
-0.000420282
-0.000209624
-9.73121e-05
-5.21378e-05
-5.77811e-05
-0.000156589
-0.000582802
-0.00206283
-0.00626684
-0.0159539
-0.0302494
-0.0219971
0
0
0
)
;
    }
    defaultFaces
    {
        type            empty;
    }
}


// ************************************************************************* //
