/*--------------------------------*- C++ -*----------------------------------*\
| =========                 |                                                 |
| \\      /  F ield         | OpenFOAM: The Open Source CFD Toolbox           |
|  \\    /   O peration     | Version:  v2012                                 |
|   \\  /    A nd           | Website:  www.openfoam.com                      |
|    \\/     M anipulation  |                                                 |
\*---------------------------------------------------------------------------*/
FoamFile
{
    version     2.0;
    format      ascii;
    class       surfaceScalarField;
    location    "0.55";
    object      phi;
}
// * * * * * * * * * * * * * * * * * * * * * * * * * * * * * * * * * * * * * //

dimensions      [0 3 -1 0 0 0 0];
oriented        oriented;


internalField   nonuniform List<scalar> 
4432
(
-4.97534e-06
4.97534e-06
-6.79017e-06
1.81483e-06
-5.34452e-06
-1.44565e-06
-2.71028e-06
-2.63424e-06
1.30955e-07
-2.84124e-06
2.79951e-06
-2.66855e-06
5.16238e-06
-2.36287e-06
7.20223e-06
-2.03985e-06
8.94464e-06
-1.74241e-06
1.04232e-05
-1.47857e-06
1.16639e-05
-1.24065e-06
1.26809e-05
-1.01706e-06
1.34704e-05
-7.89458e-07
1.39924e-05
-5.22054e-07
1.41098e-05
-1.1732e-07
1.35446e-05
5.65124e-07
1.19853e-05
1.55938e-06
9.07343e-06
2.91182e-06
4.61883e-06
4.4546e-06
-1.20148e-06
5.82031e-06
-7.35605e-06
6.15456e-06
-9.75233e-06
2.39628e-06
-9.75233e-06
-3.6995e-06
8.67484e-06
-3.61931e-06
1.73464e-06
-1.97611e-06
-3.08885e-06
3.28637e-07
-4.93898e-06
2.7894e-06
-5.302e-06
5.12553e-06
-5.00468e-06
7.21922e-06
-4.45655e-06
9.042e-06
-3.86264e-06
1.06048e-05
-3.30522e-06
1.19287e-05
-2.80248e-06
1.30287e-05
-2.34058e-06
1.39101e-05
-1.89845e-06
1.45672e-05
-1.44658e-06
1.49742e-05
-9.2905e-07
1.50852e-05
-2.28317e-07
1.48122e-05
8.38085e-07
1.3926e-05
2.44562e-06
1.21052e-05
4.73258e-06
8.97047e-06
7.58933e-06
4.3863e-06
1.04045e-05
-9.39912e-07
1.14808e-05
-3.77095e-06
5.22731e-06
-1.35233e-05
-1.84704e-06
1.05219e-05
-1.04782e-06
9.35421e-07
5.61729e-07
-4.69841e-06
2.61698e-06
-6.99423e-06
4.76105e-06
-7.44607e-06
6.78531e-06
-7.02894e-06
8.60398e-06
-6.27522e-06
1.01942e-05
-5.45289e-06
1.15619e-05
-4.67293e-06
1.27196e-05
-3.96014e-06
1.36727e-05
-3.29372e-06
1.44197e-05
-2.64545e-06
1.49542e-05
-1.98104e-06
1.52587e-05
-1.23351e-06
1.53034e-05
-2.73019e-07
1.50353e-05
1.10614e-06
1.43464e-05
3.13453e-06
1.30844e-05
5.99457e-06
1.10678e-05
9.6059e-06
8.21752e-06
1.32548e-05
4.77596e-06
1.49223e-05
1.504e-06
8.49926e-06
-1.20193e-05
-9.67393e-08
1.06186e-05
1.18241e-06
-3.43729e-07
2.83812e-06
-6.35411e-06
4.69274e-06
-8.84885e-06
6.53632e-06
-9.28964e-06
8.24908e-06
-8.7417e-06
9.78583e-06
-7.81196e-06
1.11351e-05
-6.8022e-06
1.23004e-05
-5.83824e-06
1.3287e-05
-4.94671e-06
1.40913e-05
-4.09796e-06
1.47046e-05
-3.25877e-06
1.51209e-05
-2.39733e-06
1.53329e-05
-1.44549e-06
1.53285e-05
-2.68689e-07
1.50829e-05
1.35173e-06
1.45488e-05
3.66864e-06
1.36655e-05
6.87791e-06
1.23809e-05
1.08905e-05
1.06406e-05
1.49951e-05
8.28579e-06
1.72771e-05
4.93518e-06
1.18499e-05
-7.08409e-06
1.71721e-06
8.90141e-06
3.28105e-06
-1.90758e-06
4.99427e-06
-8.06733e-06
6.65458e-06
-1.05092e-05
8.1906e-06
-1.08257e-05
9.5833e-06
-1.01344e-05
1.08318e-05
-9.06044e-06
1.19351e-05
-7.90554e-06
1.28938e-05
-6.79692e-06
1.37064e-05
-5.75931e-06
1.43602e-05
-4.75171e-06
1.48393e-05
-3.73789e-06
1.51389e-05
-2.69692e-06
1.52627e-05
-1.56931e-06
1.5218e-05
-2.24e-07
1.50062e-05
1.56354e-06
1.4617e-05
4.05783e-06
1.4037e-05
7.45793e-06
1.32775e-05
1.16499e-05
1.2283e-05
1.59896e-05
1.07048e-05
1.88553e-05
7.35702e-06
1.51977e-05
2.72927e-07
3.07334e-06
5.82808e-06
5.26183e-06
-4.09607e-06
7.06412e-06
-9.86962e-06
8.50573e-06
-1.19508e-05
9.70841e-06
-1.20283e-05
1.07712e-05
-1.11972e-05
1.17315e-05
-1.00207e-05
1.2591e-05
-8.76503e-06
1.33442e-05
-7.55013e-06
1.39835e-05
-6.3986e-06
1.44872e-05
-5.25547e-06
1.48321e-05
-4.08279e-06
1.50152e-05
-2.87997e-06
1.5052e-05
-1.60608e-06
1.49699e-05
-1.41942e-07
1.47952e-05
1.73826e-06
1.45425e-05
4.31047e-06
1.42215e-05
7.77898e-06
1.38783e-05
1.1993e-05
1.34624e-05
1.64056e-05
1.25212e-05
1.97965e-05
9.27812e-06
1.84407e-05
9.55105e-06
4.13773e-06
1.69034e-06
7.15336e-06
-7.1117e-06
9.04492e-06
-1.17612e-05
1.02016e-05
-1.31075e-05
1.10373e-05
-1.2864e-05
1.17712e-05
-1.19312e-05
1.24567e-05
-1.07062e-05
1.30845e-05
-9.39281e-06
1.36396e-05
-8.10523e-06
1.41098e-05
-6.86884e-06
1.44662e-05
-5.61183e-06
1.46777e-05
-4.29436e-06
1.47443e-05
-2.94649e-06
1.46934e-05
-1.55525e-06
1.45732e-05
-2.17467e-08
1.44341e-05
1.87735e-06
1.43083e-05
4.43628e-06
1.42145e-05
7.87283e-06
1.4227e-05
1.19805e-05
1.43231e-05
1.63095e-05
1.40492e-05
2.00704e-05
1.12095e-05
2.12804e-05
2.07606e-05
5.23633e-06
-3.54599e-06
9.05644e-06
-1.09318e-05
1.08675e-05
-1.35723e-05
1.16365e-05
-1.38765e-05
1.20971e-05
-1.33246e-05
1.25352e-05
-1.23693e-05
1.29819e-05
-1.11528e-05
1.34042e-05
-9.81512e-06
1.3776e-05
-8.47707e-06
1.40855e-05
-7.1783e-06
1.42991e-05
-5.8255e-06
1.43791e-05
-4.37431e-06
1.43298e-05
-2.89721e-06
1.41908e-05
-1.41629e-06
1.40297e-05
1.39347e-07
1.39221e-05
1.98496e-06
1.39107e-05
4.44774e-06
1.40136e-05
7.76986e-06
1.43379e-05
1.16563e-05
1.49237e-05
1.57237e-05
1.54322e-05
1.95619e-05
1.37197e-05
2.29929e-05
3.44803e-05
1.80647e-05
-1.80647e-05
3.37463e-05
-1.56815e-05
2.95808e-05
4.16544e-06
1.07955e-05
1.87851e-05
-1.7545e-05
2.83405e-05
-4.91661e-05
3.16218e-05
-8.45913e-05
3.54254e-05
-0.000140941
5.63495e-05
-0.00021817
7.72295e-05
-0.000289449
7.12786e-05
-0.000326238
3.67896e-05
-0.000329877
3.63854e-06
-0.000319778
-1.0099e-05
-0.000300729
-1.90483e-05
-0.000266528
-3.42019e-05
-0.000225628
-4.08991e-05
-0.000171075
-5.45535e-05
-7.46907e-05
-9.63844e-05
-7.46906e-05
1.08273e-05
-2.88919e-05
2.07895e-05
-2.56438e-05
1.21055e-05
1.28493e-05
-1.67259e-05
4.76169e-05
-6.20112e-05
7.36262e-05
-0.000119694
8.9305e-05
-0.000191594
0.000107325
-0.00026425
0.000129005
-0.000318279
0.000131259
-0.000340144
9.31435e-05
-0.000314633
1.12786e-05
-0.00025771
-5.32846e-05
-0.00022348
-4.43292e-05
-0.000213168
-2.93603e-05
-0.000199677
-4.76928e-05
-0.00018422
-5.63557e-05
-0.000129232
-0.000109541
-5.77305e-05
-0.000167886
-0.000132421
4.30105e-06
-3.31931e-05
1.07853e-05
-3.21283e-05
-3.37763e-06
2.70122e-05
-3.56632e-05
7.99028e-05
-8.01363e-05
0.000118099
-0.000136697
0.000145866
-0.000203475
0.000174103
-0.000260737
0.000186268
-0.000294325
0.000164846
-0.000287675
8.64935e-05
-0.000243912
-3.24841e-05
-0.000199917
-9.72798e-05
-0.000177234
-6.70116e-05
-0.000166961
-3.96333e-05
-0.000153933
-6.07213e-05
-0.000144959
-6.53293e-05
-9.31009e-05
-0.0001614
-4.49835e-05
-0.000216004
-0.000177405
1.13223e-06
-3.43254e-05
6.4972e-06
-3.74935e-05
-9.60344e-06
4.31128e-05
-4.04468e-05
0.000110746
-7.70918e-05
0.000154744
-0.000119792
0.000188565
-0.00016485
0.000219161
-0.000201174
0.000222592
-0.000215656
0.000179328
-0.000202243
7.30804e-05
-0.000177707
-5.70199e-05
-0.000158361
-0.000116626
-0.000140779
-8.45945e-05
-0.000122008
-5.84038e-05
-9.95904e-05
-8.31393e-05
-8.73254e-05
-7.75946e-05
-5.21397e-05
-0.000196585
-2.83754e-05
-0.000239768
-0.00020578
1.60917e-06
-3.59346e-05
9.27929e-06
-4.51636e-05
-7.10591e-06
5.94981e-05
-3.49334e-05
0.000138573
-6.20802e-05
0.000181891
-8.75383e-05
0.000214024
-0.00010885
0.000240473
-0.000122705
0.000236447
-0.000122314
0.000178937
-0.000112747
6.35139e-05
-0.000108145
-6.16222e-05
-0.000106028
-0.000118743
-9.88698e-05
-9.17526e-05
-8.54052e-05
-7.18685e-05
-6.36217e-05
-0.000104923
-2.68845e-05
-0.000114332
-1.51271e-05
-0.000208342
-1.29305e-05
-0.000241965
-0.00021871
6.69487e-06
-4.26295e-05
1.86605e-05
-5.7129e-05
1.1012e-06
7.70575e-05
-2.36756e-05
0.000163349
-4.24662e-05
0.000200681
-5.43136e-05
0.000225871
-5.76422e-05
0.000243801
-5.43793e-05
0.000233184
-4.67237e-05
0.000171281
-4.33801e-05
6.01703e-05
-4.91686e-05
-5.5834e-05
-5.43765e-05
-0.000113535
-5.297e-05
-9.31582e-05
-4.32072e-05
-8.16316e-05
-3.65244e-05
-0.000111605
4.57432e-06
-0.00015543
5.80171e-06
-0.00020957
-1.19787e-06
-0.000234965
-0.000219908
1.27029e-05
-5.53323e-05
1.9268e-05
-6.36943e-05
7.45649e-06
8.8869e-05
-1.049e-05
0.000181296
-2.23045e-05
0.000212496
-2.63252e-05
0.000229892
-2.10684e-05
0.000238544
-9.63372e-06
0.00022175
9.67072e-07
0.00016068
3.11808e-06
5.80191e-05
-3.82954e-06
-4.88858e-05
-9.22785e-06
-0.000108137
-1.10889e-05
-9.12978e-05
-1.39345e-06
-9.13271e-05
9.73926e-06
-0.000122738
2.14107e-05
-0.000167102
1.59553e-05
-0.000204114
5.09953e-06
-0.000224109
-0.000214809
1.34455e-05
-6.87778e-05
8.21347e-06
-5.84623e-05
9.12677e-06
8.79557e-05
2.13549e-06
0.000188287
-2.84616e-06
0.000217478
-2.44415e-06
0.00022949
5.62349e-06
0.000230477
1.91747e-05
0.000208199
3.12871e-05
0.000148568
3.42421e-05
5.50644e-05
2.93859e-05
-4.40299e-05
2.43969e-05
-0.000103149
2.29877e-05
-8.98879e-05
2.31237e-05
-9.14633e-05
3.19494e-05
-0.000131564
3.08125e-05
-0.000165965
2.18162e-05
-0.000195118
9.70969e-06
-0.000212003
-0.000205099
1.61375e-05
-1.96835e-05
2.51782e-05
-1.99725e-05
2.76669e-05
-1.6061e-05
2.79566e-05
-1.41662e-05
2.80117e-05
-1.33796e-05
2.827e-05
-1.26277e-05
2.86576e-05
-1.15404e-05
2.90322e-05
-1.01898e-05
2.93049e-05
-8.74972e-06
2.94719e-05
-7.34526e-06
2.94783e-05
-5.83192e-06
2.92294e-05
-4.12545e-06
2.8751e-05
-2.41876e-06
2.81655e-05
-8.30876e-07
2.76833e-05
6.21628e-07
2.75374e-05
2.13081e-06
2.78534e-05
4.13173e-06
2.85969e-05
7.02634e-06
3.01413e-05
1.0112e-05
3.2866e-05
1.29989e-05
3.67148e-05
1.57131e-05
4.20438e-05
1.76639e-05
2.05804e-05
5.59437e-05
2.49083e-05
-4.45918e-05
2.89227e-05
-2.39869e-05
2.80957e-05
-1.52341e-05
2.71379e-05
-1.32083e-05
2.69552e-05
-1.31969e-05
2.71923e-05
-1.28648e-05
2.76046e-05
-1.19526e-05
2.80305e-05
-1.06157e-05
2.83022e-05
-9.02139e-06
2.82603e-05
-7.30336e-06
2.77082e-05
-5.2798e-06
2.69967e-05
-3.41395e-06
2.61322e-05
-1.55424e-06
2.52402e-05
6.11126e-08
2.45061e-05
1.35572e-06
2.44128e-05
2.22414e-06
2.51585e-05
3.38598e-06
2.61733e-05
6.01152e-06
2.81821e-05
8.10322e-06
3.16819e-05
9.49906e-06
3.64114e-05
1.09837e-05
4.22965e-05
1.17787e-05
1.21212e-05
5.07557e-05
1.36572e-05
-5.8249e-05
1.94795e-05
-2.9809e-05
2.31551e-05
-1.89096e-05
2.53881e-05
-1.54413e-05
2.61413e-05
-1.395e-05
2.634e-05
-1.30634e-05
2.65316e-05
-1.21443e-05
2.68175e-05
-1.09016e-05
2.69651e-05
-9.16898e-06
2.63717e-05
-6.70995e-06
2.31958e-05
-2.10389e-06
2.19867e-05
-2.20491e-06
2.16332e-05
-1.20072e-06
2.11621e-05
5.32197e-07
2.11651e-05
1.35279e-06
2.18096e-05
1.57963e-06
2.28188e-05
2.37671e-06
2.36577e-05
5.1726e-06
2.58806e-05
5.88033e-06
2.97533e-05
5.62636e-06
3.41647e-05
6.5723e-06
3.931e-05
6.6334e-06
5.82545e-06
4.56058e-05
-9.82728e-06
-4.84216e-05
-3.0532e-06
-3.6583e-05
5.00211e-06
-2.69649e-05
1.15396e-05
-2.19787e-05
1.67142e-05
-1.91247e-05
2.06439e-05
-1.69931e-05
2.34784e-05
-1.49788e-05
2.5289e-05
-1.27122e-05
2.59395e-05
-9.81961e-06
2.50857e-05
-5.8561e-06
2.38831e-05
-9.01233e-07
2.21169e-05
-4.38633e-07
2.07515e-05
1.64783e-07
2.02544e-05
1.02925e-06
1.90298e-05
2.57739e-06
1.78867e-05
2.72271e-06
1.87139e-05
1.54955e-06
2.12845e-05
2.60199e-06
2.51942e-05
1.97059e-06
2.91921e-05
1.62851e-06
3.30835e-05
2.68093e-06
3.7862e-05
1.85489e-06
4.8848e-07
4.31989e-05
-7.25107e-06
-4.11705e-05
-4.86112e-06
-3.89728e-05
9.28441e-07
-3.27543e-05
6.78905e-06
-2.78393e-05
1.18641e-05
-2.41997e-05
1.60427e-05
-2.11718e-05
1.93699e-05
-1.83061e-05
2.19375e-05
-1.52798e-05
2.39355e-05
-1.18176e-05
2.58596e-05
-7.78013e-06
2.85739e-05
-3.61539e-06
2.94969e-05
-1.36149e-06
2.90635e-05
5.98143e-07
2.73324e-05
2.76041e-06
2.42192e-05
5.69062e-06
2.106e-05
5.88184e-06
1.9187e-05
3.42258e-06
2.04456e-05
1.34336e-06
2.38031e-05
-1.3869e-06
2.80867e-05
-2.65505e-06
3.32921e-05
-2.52444e-06
3.86775e-05
-3.53055e-06
-4.42401e-06
4.359e-05
-2.38151e-06
-3.87889e-05
-1.8586e-06
-3.94956e-05
1.229e-06
-3.58418e-05
5.22833e-06
-3.18386e-05
9.20416e-06
-2.81755e-05
1.28246e-05
-2.47923e-05
1.60176e-05
-2.14992e-05
1.88452e-05
-1.81074e-05
2.14988e-05
-1.44712e-05
2.42981e-05
-1.05794e-05
2.74256e-05
-6.74273e-06
2.975e-05
-3.6858e-06
3.13065e-05
-9.58394e-07
3.22738e-05
1.79312e-06
3.34408e-05
4.52362e-06
3.37497e-05
5.57295e-06
3.25105e-05
4.66184e-06
3.13302e-05
2.52365e-06
2.94695e-05
4.73903e-07
2.99187e-05
-3.1042e-06
3.34425e-05
-6.04823e-06
3.74495e-05
-7.5376e-06
-8.71057e-06
4.17361e-05
-1.06504e-06
-3.77238e-05
-2.91351e-07
-4.02691e-05
1.77371e-06
-3.79068e-05
4.53055e-06
-3.45954e-05
7.51204e-06
-3.1157e-05
1.04751e-05
-2.77554e-05
1.33336e-05
-2.43578e-05
1.61109e-05
-2.08847e-05
1.89164e-05
-1.72765e-05
2.18959e-05
-1.35588e-05
2.5066e-05
-9.91278e-06
2.80069e-05
-6.62673e-06
3.06422e-05
-3.59368e-06
3.31514e-05
-7.16079e-07
3.58591e-05
1.81588e-06
3.82269e-05
3.20524e-06
3.98359e-05
3.05299e-06
4.0432e-05
1.92761e-06
4.09678e-05
-6.17641e-08
4.14906e-05
-3.62692e-06
4.23857e-05
-6.94328e-06
4.16858e-05
-6.83761e-06
-8.13825e-06
4.11135e-05
-1.21575e-07
-3.76021e-05
5.47244e-07
-4.09378e-05
1.94341e-06
-3.93029e-05
3.86811e-06
-3.652e-05
6.10366e-06
-3.33926e-05
8.50134e-06
-3.01531e-05
1.09922e-05
-2.68487e-05
1.35753e-05
-2.34678e-05
1.62996e-05
-2.00008e-05
1.92241e-05
-1.64832e-05
2.23349e-05
-1.30236e-05
2.54714e-05
-9.76323e-06
2.85912e-05
-6.71349e-06
3.17857e-05
-3.91059e-06
3.51542e-05
-1.55263e-06
3.84324e-05
-7.28413e-08
4.11901e-05
2.95406e-07
4.33576e-05
-2.39837e-07
4.49955e-05
-1.69952e-06
4.55341e-05
-4.16543e-06
4.49814e-05
-6.39045e-06
4.53435e-05
-7.1997e-06
-8.57946e-06
4.57848e-05
2.11316e-07
-3.78133e-05
6.87494e-07
-4.14138e-05
1.62214e-06
-4.02374e-05
2.98545e-06
-3.78833e-05
4.6822e-06
-3.50893e-05
6.62862e-06
-3.20996e-05
8.77689e-06
-2.8997e-05
1.11166e-05
-2.58076e-05
1.36647e-05
-2.2549e-05
1.64415e-05
-1.926e-05
1.94323e-05
-1.60145e-05
2.25711e-05
-1.2902e-05
2.58351e-05
-9.97757e-06
2.9248e-05
-7.32347e-06
3.28019e-05
-5.10646e-06
3.63081e-05
-3.57896e-06
3.94907e-05
-2.88713e-06
4.22319e-05
-2.98093e-06
4.43715e-05
-3.83907e-06
4.55569e-05
-5.35083e-06
4.60336e-05
-6.867e-06
4.68051e-05
-7.97112e-06
-9.18005e-06
4.74058e-05
1.35102e-07
-3.79483e-05
3.64489e-07
-4.1643e-05
9.48143e-07
-4.0821e-05
1.90465e-06
-3.88398e-05
3.19505e-06
-3.63798e-05
4.77417e-06
-3.36787e-05
6.61121e-06
-3.0834e-05
8.69434e-06
-2.78907e-05
1.10261e-05
-2.48807e-05
1.36102e-05
-2.18441e-05
1.64345e-05
-1.88389e-05
1.94663e-05
-1.59338e-05
2.26838e-05
-1.31951e-05
2.60712e-05
-1.07109e-05
2.95756e-05
-8.61081e-06
3.30498e-05
-7.05309e-06
3.62998e-05
-6.13706e-06
3.918e-05
-5.86111e-06
4.15286e-05
-6.18769e-06
4.31673e-05
-6.98947e-06
4.42235e-05
-7.92307e-06
4.49892e-05
-8.73678e-06
-9.39717e-06
4.52064e-05
-1.33389e-07
-3.78148e-05
-1.68271e-07
-4.1608e-05
1.1921e-07
-4.11084e-05
7.49004e-07
-3.94696e-05
1.70669e-06
-3.73375e-05
2.96817e-06
-3.49403e-05
4.51423e-06
-3.23802e-05
6.33479e-06
-2.97113e-05
8.42679e-06
-2.69728e-05
1.07873e-05
-2.42047e-05
1.34047e-05
-2.14564e-05
1.62565e-05
-1.87856e-05
1.93172e-05
-1.62558e-05
2.25515e-05
-1.39451e-05
2.58924e-05
-1.19517e-05
2.92194e-05
-1.03801e-05
3.23817e-05
-9.29933e-06
3.52393e-05
-8.71881e-06
3.76543e-05
-8.60265e-06
3.95101e-05
-8.84528e-06
4.08234e-05
-9.2363e-06
4.16643e-05
-9.57762e-06
-9.71124e-06
4.19784e-05
-4.47615e-07
-3.73671e-05
-7.2719e-07
-4.13283e-05
-7.03251e-07
-4.11323e-05
-3.54883e-07
-3.9818e-05
3.11503e-07
-3.8004e-05
1.28324e-06
-3.59121e-05
2.549e-06
-3.3646e-05
4.10143e-06
-3.12638e-05
5.93604e-06
-2.88074e-05
8.04723e-06
-2.63159e-05
1.04235e-05
-2.38327e-05
1.30446e-05
-2.14068e-05
1.5882e-05
-1.90933e-05
1.88932e-05
-1.69563e-05
2.20102e-05
-1.50687e-05
2.51321e-05
-1.35019e-05
2.81361e-05
-1.23034e-05
3.08992e-05
-1.1482e-05
3.33025e-05
-1.1006e-05
3.5248e-05
-1.07908e-05
3.66996e-05
-1.06879e-05
3.76529e-05
-1.05309e-05
-1.01411e-05
3.80828e-05
-7.16105e-07
-3.66509e-05
-1.21097e-06
-4.08334e-05
-1.41382e-06
-4.09295e-05
-1.31308e-06
-3.99188e-05
-9.09543e-07
-3.84076e-05
-2.08247e-07
-3.66135e-05
7.85318e-07
-3.46396e-05
2.06675e-06
-3.25453e-05
3.63199e-06
-3.03727e-05
5.47492e-06
-2.81589e-05
7.58409e-06
-2.59419e-05
9.94012e-06
-2.37628e-05
1.25137e-05
-2.16669e-05
1.52616e-05
-1.97041e-05
1.81204e-05
-1.79276e-05
2.10048e-05
-1.63863e-05
2.38133e-05
-1.51121e-05
2.64408e-05
-1.41096e-05
2.8785e-05
-1.33503e-05
3.07575e-05
-1.27634e-05
3.23008e-05
-1.22312e-05
3.33754e-05
-1.16054e-05
-1.07068e-05
3.39411e-05
-9.05519e-07
-3.57454e-05
-1.56696e-06
-4.01719e-05
-1.95828e-06
-4.05382e-05
-2.07227e-06
-3.98049e-05
-1.90485e-06
-3.85752e-05
-1.45469e-06
-3.70637e-05
-7.22122e-07
-3.53722e-05
2.91609e-07
-3.35591e-05
1.58378e-06
-3.16649e-05
3.14883e-06
-2.9724e-05
4.97599e-06
-2.77691e-05
7.047e-06
-2.58338e-05
9.3339e-06
-2.39537e-05
1.17961e-05
-2.21663e-05
1.43774e-05
-2.0509e-05
1.70058e-05
-1.90147e-05
1.95973e-05
-1.77037e-05
2.20636e-05
-1.6576e-05
2.43175e-05
-1.56043e-05
2.62803e-05
-1.47262e-05
2.7888e-05
-1.38389e-05
2.90854e-05
-1.28028e-05
-1.14369e-05
2.98156e-05
-1.00998e-06
-3.47354e-05
-1.78432e-06
-3.93976e-05
-2.32243e-06
-4.00002e-05
-2.61598e-06
-3.95115e-05
-2.65508e-06
-3.85362e-05
-2.43239e-06
-3.72865e-05
-1.94342e-06
-3.58613e-05
-1.18611e-06
-3.43164e-05
-1.6115e-07
-3.26899e-05
1.12712e-06
-3.10123e-05
2.66916e-06
-2.93111e-05
4.44854e-06
-2.76132e-05
6.44001e-06
-2.59452e-05
8.60757e-06
-2.43338e-05
1.0903e-05
-2.28044e-05
1.32664e-05
-2.13781e-05
1.5629e-05
-2.00663e-05
1.79177e-05
-1.88648e-05
2.00601e-05
-1.77467e-05
2.19881e-05
-1.66542e-05
2.36402e-05
-1.54911e-05
2.49575e-05
-1.41201e-05
-1.2354e-05
2.58747e-05
-1.04003e-06
-3.36954e-05
-1.87637e-06
-3.85614e-05
-2.51936e-06
-3.93573e-05
-2.95549e-06
-3.90755e-05
-3.16826e-06
-3.83235e-05
-3.14453e-06
-3.73103e-05
-2.87523e-06
-3.61307e-05
-2.35503e-06
-3.48367e-05
-1.58231e-06
-3.34627e-05
-5.59656e-07
-3.2035e-05
7.0519e-07
-3.05759e-05
2.19809e-06
-2.9106e-05
3.89731e-06
-2.76443e-05
5.77224e-06
-2.62087e-05
7.78284e-06
-2.4815e-05
9.88031e-06
-2.34756e-05
1.20093e-05
-2.21954e-05
1.41114e-05
-2.0967e-05
1.61279e-05
-1.97634e-05
1.80028e-05
-1.8529e-05
1.96821e-05
-1.71704e-05
2.11108e-05
-1.55486e-05
-1.34673e-05
2.22243e-05
-1.01336e-06
-3.2682e-05
-1.86885e-06
-3.7706e-05
-2.57812e-06
-3.86482e-05
-3.12035e-06
-3.85334e-05
-3.47237e-06
-3.79716e-05
-3.6157e-06
-3.71671e-05
-3.53718e-06
-3.62093e-05
-3.22848e-06
-3.51455e-05
-2.68563e-06
-3.40056e-05
-1.9092e-06
-3.28114e-05
-9.04827e-07
-3.15803e-05
3.16108e-07
-3.03269e-05
1.73563e-06
-2.90638e-05
3.32877e-06
-2.78018e-05
5.06335e-06
-2.65496e-05
6.90082e-06
-2.53131e-05
8.79813e-06
-2.40927e-05
1.07101e-05
-2.2879e-05
1.25918e-05
-2.16451e-05
1.43993e-05
-2.03366e-05
1.60892e-05
-1.88602e-05
1.76143e-05
-1.70737e-05
-1.477e-05
1.8917e-05
-9.48987e-07
-3.17331e-05
-1.79184e-06
-3.68633e-05
-2.53484e-06
-3.79053e-05
-3.14965e-06
-3.79187e-05
-3.60723e-06
-3.75141e-05
-3.88468e-06
-3.68898e-05
-3.96553e-06
-3.61286e-05
-3.83888e-06
-3.52722e-05
-3.49869e-06
-3.43459e-05
-2.94356e-06
-3.33665e-05
-2.17684e-06
-3.2347e-05
-1.20704e-06
-3.12967e-05
-4.81296e-08
-3.02227e-05
1.2803e-06
-2.91302e-05
2.75341e-06
-2.80227e-05
4.34206e-06
-2.69017e-05
6.01426e-06
-2.5765e-05
7.73718e-06
-2.4602e-05
9.4785e-06
-2.33865e-05
1.12068e-05
-2.20649e-05
1.28896e-05
-2.05431e-05
1.44897e-05
-1.86737e-05
-1.62389e-05
1.59586e-05
-8.6434e-07
-3.08689e-05
-1.67437e-06
-3.60533e-05
-2.4262e-06
-3.71536e-05
-3.0849e-06
-3.72601e-05
-3.61718e-06
-3.6982e-05
-3.99706e-06
-3.651e-05
-4.20579e-06
-3.592e-05
-4.23061e-06
-3.52475e-05
-4.06383e-06
-3.45127e-05
-3.7023e-06
-3.37281e-05
-3.14721e-06
-3.29021e-05
-2.40421e-06
-3.20396e-05
-1.4834e-06
-3.11435e-05
-3.99199e-07
-3.02144e-05
8.3025e-07
-2.92521e-05
2.18416e-06
-2.82556e-05
3.64054e-06
-2.72214e-05
5.17766e-06
-2.61392e-05
6.77498e-06
-2.49839e-05
8.41272e-06
-2.37027e-05
1.00693e-05
-2.21997e-05
1.17169e-05
-2.03213e-05
-1.78378e-05
1.33157e-05
-7.73711e-07
-3.00952e-05
-1.54136e-06
-3.52857e-05
-2.28495e-06
-3.641e-05
-2.96474e-06
-3.65804e-05
-3.54514e-06
-3.64017e-05
-3.9988e-06
-3.60565e-05
-4.30591e-06
-3.5613e-05
-4.45272e-06
-3.51008e-05
-4.43046e-06
-3.45351e-05
-4.23459e-06
-3.3924e-05
-3.86445e-06
-3.32722e-05
-3.32306e-06
-3.2581e-05
-2.61694e-06
-3.18496e-05
-1.75573e-06
-3.10756e-05
-7.51479e-07
-3.02564e-05
3.82416e-07
-2.93896e-05
1.63269e-06
-2.84717e-05
2.98751e-06
-2.74941e-05
4.43692e-06
-2.64334e-05
5.97171e-06
-2.52375e-05
7.5801e-06
-2.38082e-05
9.24264e-06
-2.19839e-05
-1.95215e-05
1.09263e-05
-6.87743e-07
-2.94075e-05
-1.41181e-06
-3.45616e-05
-2.13722e-06
-3.56846e-05
-2.8213e-06
-3.58963e-05
-3.4283e-06
-3.57947e-05
-3.93125e-06
-3.55536e-05
-4.31061e-06
-3.52337e-05
-4.55263e-06
-3.48589e-05
-4.64815e-06
-3.44396e-05
-4.59171e-06
-3.39805e-05
-4.38117e-06
-3.34828e-05
-4.01731e-06
-3.2945e-05
-3.5035e-06
-3.23635e-05
-2.84521e-06
-3.1734e-05
-2.0491e-06
-3.10526e-05
-1.12201e-06
-3.03167e-05
-6.96036e-08
-2.95242e-05
1.1048e-06
-2.86685e-05
2.40042e-06
-2.7729e-05
3.81739e-06
-2.66545e-05
5.35249e-06
-2.53433e-05
6.99312e-06
-2.36245e-05
-2.12395e-05
8.71105e-06
-6.13209e-07
-2.87943e-05
-1.29821e-06
-3.38765e-05
-2.00123e-06
-3.49815e-05
-2.67837e-06
-3.52192e-05
-3.29561e-06
-3.51775e-05
-3.82799e-06
-3.50213e-05
-4.25756e-06
-3.48043e-05
-4.57162e-06
-3.4545e-05
-4.76133e-06
-3.425e-05
-4.82093e-06
-3.3921e-05
-4.74723e-06
-3.35566e-05
-4.53923e-06
-3.3153e-05
-4.1977e-06
-3.27051e-05
-3.72456e-06
-3.22072e-05
-3.122e-06
-3.16552e-05
-2.39128e-06
-3.10475e-05
-1.53147e-06
-3.03841e-05
-5.38529e-07
-2.96616e-05
5.94559e-07
-2.88622e-05
1.87575e-06
-2.79357e-05
3.30911e-06
-2.67766e-05
4.88767e-06
-2.52031e-05
-2.29381e-05
6.5863e-06
-5.52567e-07
-2.82416e-05
-1.20653e-06
-3.32225e-05
-1.88732e-06
-3.43007e-05
-2.55102e-06
-3.45555e-05
-3.16684e-06
-3.45617e-05
-3.71331e-06
-3.44749e-05
-4.17531e-06
-3.43423e-05
-4.54212e-06
-3.41783e-05
-4.80603e-06
-3.39862e-05
-4.96154e-06
-3.37656e-05
-5.00498e-06
-3.35132e-05
-4.9341e-06
-3.32239e-05
-4.74764e-06
-3.28916e-05
-4.44473e-06
-3.25101e-05
-4.02393e-06
-3.2076e-05
-3.48202e-06
-3.15894e-05
-2.81272e-06
-3.10534e-05
-2.00577e-06
-3.04686e-05
-1.04734e-06
-2.98206e-05
7.72205e-08
-2.90603e-05
1.37794e-06
-2.80773e-05
2.85246e-06
-2.66775e-05
-2.45638e-05
4.47822e-06
-5.04839e-07
-2.77367e-05
-1.13729e-06
-3.259e-05
-1.79899e-06
-3.3639e-05
-2.44635e-06
-3.39081e-05
-3.05307e-06
-3.39551e-05
-3.60229e-06
-3.39258e-05
-4.08282e-06
-3.38619e-05
-4.48679e-06
-3.37744e-05
-4.80831e-06
-3.36648e-05
-5.04282e-06
-3.35311e-05
-5.1867e-06
-3.33693e-05
-5.23699e-06
-3.31737e-05
-5.19107e-06
-3.29375e-05
-5.04603e-06
-3.26551e-05
-4.79772e-06
-3.23243e-05
-4.43952e-06
-3.19477e-05
-3.961e-06
-3.1532e-05
-3.34701e-06
-3.10826e-05
-2.57816e-06
-3.05895e-05
-1.63363e-06
-3.00047e-05
-4.97587e-07
-2.92133e-05
8.32066e-07
-2.80071e-05
-2.60657e-05
2.33405e-06
-4.66523e-07
-2.72702e-05
-1.08741e-06
-3.19691e-05
-1.73471e-06
-3.29917e-05
-2.3652e-06
-3.32776e-05
-2.95798e-06
-3.33624e-05
-3.50181e-06
-3.3382e-05
-3.99023e-06
-3.33736e-05
-4.41893e-06
-3.33458e-05
-4.78449e-06
-3.32993e-05
-5.0838e-06
-3.32318e-05
-5.31386e-06
-3.31392e-05
-5.47161e-06
-3.30159e-05
-5.5537e-06
-3.28553e-05
-5.55592e-06
-3.26529e-05
-5.47235e-06
-3.24079e-05
-5.29408e-06
-3.2126e-05
-5.00776e-06
-3.18184e-05
-4.59463e-06
-3.14957e-05
-4.03084e-06
-3.11532e-05
-3.29035e-06
-3.07452e-05
-2.35141e-06
-3.01522e-05
-1.20632e-06
-2.91521e-05
-2.74001e-05
1.28154e-07
-4.34003e-07
-2.68362e-05
-1.05234e-06
-3.13508e-05
-1.68991e-06
-3.23542e-05
-2.30393e-06
-3.26637e-05
-2.87968e-06
-3.27867e-05
-3.41224e-06
-3.28495e-05
-3.90044e-06
-3.28854e-05
-4.34397e-06
-3.29023e-05
-4.74231e-06
-3.29009e-05
-5.09429e-06
-3.28798e-05
-5.39802e-06
-3.28354e-05
-5.65089e-06
-3.27629e-05
-5.84942e-06
-3.26568e-05
-5.98888e-06
-3.25134e-05
-6.06248e-06
-3.23343e-05
-6.0601e-06
-3.21283e-05
-5.96676e-06
-3.19117e-05
-5.76139e-06
-3.17011e-05
-5.4168e-06
-3.14978e-05
-4.90226e-06
-3.12597e-05
-4.18994e-06
-3.08644e-05
-3.26487e-06
-3.00771e-05
-2.85292e-05
-2.13573e-06
-4.05811e-07
-2.64304e-05
-1.02796e-06
-3.07286e-05
-1.65871e-06
-3.17234e-05
-2.25621e-06
-3.20662e-05
-2.81252e-06
-3.22305e-05
-3.3294e-06
-3.23327e-05
-3.81106e-06
-3.24038e-05
-4.26137e-06
-3.2452e-05
-4.68291e-06
-3.24793e-05
-5.07679e-06
-3.24858e-05
-5.44262e-06
-3.24695e-05
-5.77869e-06
-3.24268e-05
-6.08198e-06
-3.23535e-05
-6.34794e-06
-3.22474e-05
-6.56978e-06
-3.21124e-05
-6.73728e-06
-3.19608e-05
-6.8351e-06
-3.18139e-05
-6.84122e-06
-3.16949e-05
-6.72634e-06
-3.16127e-05
-6.45568e-06
-3.15303e-05
-5.99464e-06
-3.13255e-05
-5.31877e-06
-3.0753e-05
-2.94225e-05
-4.42549e-06
-3.8336e-07
-2.6047e-05
-1.01104e-06
-3.01009e-05
-1.63464e-06
-3.10998e-05
-2.21417e-06
-3.14867e-05
-2.74868e-06
-3.1696e-05
-3.24635e-06
-3.18351e-05
-3.71644e-06
-3.19337e-05
-4.1668e-06
-3.20016e-05
-4.60311e-06
-3.20429e-05
-5.02885e-06
-3.20599e-05
-5.44541e-06
-3.20529e-05
-5.85235e-06
-3.20199e-05
-6.24759e-06
-3.19583e-05
-6.6274e-06
-3.18676e-05
-6.9858e-06
-3.17539e-05
-7.31351e-06
-3.16331e-05
-7.59612e-06
-3.15312e-05
-7.81218e-06
-3.14789e-05
-7.93171e-06
-3.14931e-05
-7.91678e-06
-3.15453e-05
-7.72581e-06
-3.15165e-05
-7.32273e-06
-3.11561e-05
-3.0056e-05
-6.68922e-06
-3.67844e-07
-2.56792e-05
-9.97972e-07
-2.94707e-05
-1.61064e-06
-3.04871e-05
-2.16932e-06
-3.09281e-05
-2.67956e-06
-3.11857e-05
-3.15511e-06
-3.13595e-05
-3.60956e-06
-3.14792e-05
-4.05421e-06
-3.15568e-05
-4.49757e-06
-3.15994e-05
-4.94541e-06
-3.1612e-05
-5.40101e-06
-3.15972e-05
-5.86545e-06
-3.15555e-05
-6.33798e-06
-3.14857e-05
-6.81618e-06
-3.13894e-05
-7.29559e-06
-3.12745e-05
-7.76879e-06
-3.11598e-05
-8.22361e-06
-3.10764e-05
-8.64077e-06
-3.10618e-05
-8.99145e-06
-3.11425e-05
-9.2361e-06
-3.13007e-05
-9.32668e-06
-3.14259e-05
-9.21406e-06
-3.12687e-05
-3.04098e-05
-8.86028e-06
-3.58182e-07
-2.53209e-05
-9.8347e-07
-2.88453e-05
-1.57923e-06
-2.98913e-05
-2.11345e-06
-3.03939e-05
-2.5971e-06
-3.0702e-05
-3.04819e-06
-3.09083e-05
-3.48368e-06
-3.10437e-05
-3.91756e-06
-3.11229e-05
-4.3607e-06
-3.11562e-05
-4.82091e-06
-3.11517e-05
-5.30328e-06
-3.11149e-05
-5.81054e-06
-3.10482e-05
-6.34349e-06
-3.09528e-05
-6.90135e-06
-3.08316e-05
-7.4817e-06
-3.06941e-05
-8.07976e-06
-3.05618e-05
-8.68676e-06
-3.04694e-05
-9.2873e-06
-3.04612e-05
-9.8559e-06
-3.05739e-05
-1.03538e-05
-3.08029e-05
-1.07281e-05
-3.10516e-05
-1.09169e-05
-3.108e-05
-3.04669e-05
-1.08599e-05
-3.49083e-07
-2.49718e-05
-9.6114e-07
-2.82331e-05
-1.53388e-06
-2.93185e-05
-2.04019e-06
-2.98875e-05
-2.49522e-06
-3.02469e-05
-2.91996e-06
-3.04835e-05
-3.33363e-06
-3.06299e-05
-3.75215e-06
-3.07043e-05
-4.1881e-06
-3.07203e-05
-4.65092e-06
-3.06889e-05
-5.14725e-06
-3.06186e-05
-5.68141e-06
-3.05141e-05
-6.2558e-06
-3.03784e-05
-6.87143e-06
-3.02159e-05
-7.52817e-06
-3.00374e-05
-8.22437e-06
-2.98656e-05
-8.95558e-06
-2.97382e-05
-9.71187e-06
-2.97049e-05
-1.04735e-05
-2.98123e-05
-1.12056e-05
-3.00708e-05
-1.18539e-05
-3.04033e-05
-1.23458e-05
-3.05881e-05
-3.0214e-05
-1.25987e-05
-3.35008e-07
-2.46367e-05
-9.26953e-07
-2.7641e-05
-1.47172e-06
-2.87737e-05
-1.94698e-06
-2.94121e-05
-2.37127e-06
-2.98225e-05
-2.76765e-06
-3.00871e-05
-3.15669e-06
-3.02409e-05
-3.55541e-06
-3.03056e-05
-3.97739e-06
-3.02983e-05
-4.4331e-06
-3.02332e-05
-4.93034e-06
-3.01213e-05
-5.47471e-06
-2.99697e-05
-6.07005e-06
-2.97831e-05
-6.71909e-06
-2.95669e-05
-7.42393e-06
-2.93326e-05
-8.18619e-06
-2.91033e-05
-9.00623e-06
-2.89182e-05
-9.88074e-06
-2.88304e-05
-1.0798e-05
-2.8895e-05
-1.17305e-05
-2.91382e-05
-1.26277e-05
-2.95062e-05
-1.3411e-05
-2.98048e-05
-2.9646e-05
-1.3979e-05
-3.17016e-07
-2.43196e-05
-8.84434e-07
-2.70734e-05
-1.39665e-06
-2.82614e-05
-1.83677e-06
-2.89719e-05
-2.22694e-06
-2.94323e-05
-2.59185e-06
-2.97222e-05
-2.95278e-06
-2.988e-05
-3.32706e-06
-2.99313e-05
-3.72841e-06
-2.98969e-05
-4.16757e-06
-2.9794e-05
-4.6529e-06
-2.96359e-05
-5.19077e-06
-2.94318e-05
-5.78607e-06
-2.91878e-05
-6.44289e-06
-2.89101e-05
-7.1653e-06
-2.86102e-05
-7.95791e-06
-2.83107e-05
-8.82575e-06
-2.80503e-05
-9.77246e-06
-2.78837e-05
-1.07958e-05
-2.78717e-05
-1.18793e-05
-2.80548e-05
-1.29814e-05
-2.84041e-05
-1.40253e-05
-2.87608e-05
-2.87728e-05
-1.48985e-05
-3.08239e-07
-2.40112e-05
-8.48007e-07
-2.65334e-05
-1.32076e-06
-2.77886e-05
-1.71841e-06
-2.85743e-05
-2.06803e-06
-2.90827e-05
-2.3961e-06
-2.93941e-05
-2.72408e-06
-2.95519e-05
-3.0687e-06
-2.95867e-05
-3.44284e-06
-2.95228e-05
-3.8566e-06
-2.93802e-05
-4.318e-06
-2.91745e-05
-4.83351e-06
-2.89164e-05
-5.40851e-06
-2.86129e-05
-6.04797e-06
-2.82707e-05
-6.75733e-06
-2.79007e-05
-7.54353e-06
-2.75244e-05
-8.4154e-06
-2.71783e-05
-9.38294e-06
-2.69161e-05
-1.04536e-05
-2.68011e-05
-1.16239e-05
-2.68844e-05
-1.28669e-05
-2.71612e-05
-1.41166e-05
-2.75112e-05
-2.76291e-05
-1.52602e-05
-3.34996e-07
-2.36761e-05
-8.42531e-07
-2.60258e-05
-1.26289e-06
-2.73681e-05
-1.60488e-06
-2.82323e-05
-1.90283e-06
-2.87848e-05
-2.18552e-06
-2.91114e-05
-2.47392e-06
-2.92635e-05
-2.78297e-06
-2.92776e-05
-3.12351e-06
-2.91822e-05
-3.50381e-06
-2.89999e-05
-3.93062e-06
-2.87477e-05
-4.40969e-06
-2.84373e-05
-4.94622e-06
-2.80763e-05
-5.54543e-06
-2.76714e-05
-6.21344e-06
-2.72326e-05
-6.95846e-06
-2.67793e-05
-7.7918e-06
-2.6345e-05
-8.72809e-06
-2.59798e-05
-9.78303e-06
-2.57462e-05
-1.09664e-05
-2.5701e-05
-1.22687e-05
-2.58588e-05
-1.3643e-05
-2.6137e-05
-2.62827e-05
-1.49896e-05
-4.31802e-07
-2.32442e-05
-8.97143e-07
-2.55604e-05
-1.24431e-06
-2.70209e-05
-1.50962e-06
-2.79669e-05
-1.73914e-06
-2.85552e-05
-1.96462e-06
-2.88858e-05
-2.20526e-06
-2.90228e-05
-2.47246e-06
-2.90103e-05
-2.77341e-06
-2.88812e-05
-3.11332e-06
-2.86599e-05
-3.49667e-06
-2.83643e-05
-3.92773e-06
-2.80062e-05
-4.41083e-06
-2.75932e-05
-4.95079e-06
-2.71313e-05
-5.55363e-06
-2.66297e-05
-6.22771e-06
-2.61052e-05
-6.98522e-06
-2.55875e-05
-7.84312e-06
-2.51219e-05
-8.82249e-06
-2.47668e-05
-9.94355e-06
-2.458e-05
-1.1214e-05
-2.45884e-05
-1.26104e-05
-2.47408e-05
-2.48356e-05
-1.40575e-05
-6.36049e-07
-2.26081e-05
-1.04168e-06
-2.51546e-05
-1.28271e-06
-2.67799e-05
-1.44076e-06