/*--------------------------------*- C++ -*----------------------------------*\
| =========                 |                                                 |
| \\      /  F ield         | OpenFOAM: The Open Source CFD Toolbox           |
|  \\    /   O peration     | Version:  v2012                                 |
|   \\  /    A nd           | Website:  www.openfoam.com                      |
|    \\/     M anipulation  |                                                 |
\*---------------------------------------------------------------------------*/
FoamFile
{
    version     2.0;
    format      ascii;
    class       volVectorField;
    location    "0.55";
    object      U;
}
// * * * * * * * * * * * * * * * * * * * * * * * * * * * * * * * * * * * * * //

dimensions      [0 1 -1 0 0 0 0];


internalField   nonuniform List<vector> 
2268
(
(-0.0450057 0.0174344 0)
(-0.0773259 0.00646137 0)
(-0.0724821 -0.00677548 0)
(-0.0460624 -0.0113844 0)
(-0.0144326 -0.0119143 0)
(0.017202 -0.0110306 0)
(0.0460308 -0.0096747 0)
(0.0712331 -0.00830379 0)
(0.0928356 -0.00707278 0)
(0.111201 -0.00600176 0)
(0.126702 -0.00505724 0)
(0.139586 -0.0041916 0)
(0.149943 -0.00332613 0)
(0.157521 -0.00231406 0)
(0.161884 -0.000647064 0)
(0.160192 0.00206629 0)
(0.149331 0.0064174 0)
(0.125469 0.0122787 0)
(0.0850865 0.0186856 0)
(0.0258556 0.0236385 0)
(-0.0511794 0.0235701 0)
(-0.136315 -0.00179639 0)
(-0.0601015 -0.045195 0)
(-0.0455446 0.0382149 0)
(-0.0460801 0.0110238 0)
(-0.0336551 -0.0118046 0)
(-0.00986923 -0.0210506 0)
(0.0179846 -0.022939 0)
(0.0457225 -0.0217085 0)
(0.0711525 -0.0193126 0)
(0.0935314 -0.016718 0)
(0.112827 -0.0142964 0)
(0.129269 -0.0121291 0)
(0.143084 -0.0101582 0)
(0.154396 -0.0082898 0)
(0.163218 -0.00638129 0)
(0.169388 -0.00416106 0)
(0.17245 -0.000983381 0)
(0.171982 0.00396107 0)
(0.166262 0.0115017 0)
(0.152168 0.022013 0)
(0.125876 0.0347286 0)
(0.0813847 0.0468166 0)
(0.0259176 0.0507865 0)
(-0.0554131 0.0211236 0)
(-0.0146912 -0.0710759 0)
(-0.0293827 0.0527445 0)
(-0.017738 0.00762066 0)
(-0.00432615 -0.0208014 0)
(0.0178149 -0.0323021 0)
(0.0423393 -0.0346797 0)
(0.0664168 -0.0328108 0)
(0.0884614 -0.0292956 0)
(0.107931 -0.0254448 0)
(0.124791 -0.0217999 0)
(0.139187 -0.0184864 0)
(0.151233 -0.0154144 0)
(0.160948 -0.0124494 0)
(0.168292 -0.00941231 0)
(0.173145 -0.00595931 0)
(0.175224 -0.00142232 0)
(0.174184 0.00524962 0)
(0.169172 0.0152042 0)
(0.158668 0.0293347 0)
(0.141088 0.0471594 0)
(0.112945 0.0649605 0)
(0.0792612 0.0723437 0)
(0.0174349 0.0382557 0)
(0.0264408 -0.0734802 0)
(-0.010319 0.0596868 0)
(0.00685449 0.00191966 0)
(0.0221061 -0.0296388 0)
(0.0429747 -0.0428331 0)
(0.0644214 -0.0453986 0)
(0.0848631 -0.0428404 0)
(0.103463 -0.038287 0)
(0.119941 -0.0333124 0)
(0.134282 -0.028573 0)
(0.146569 -0.0242149 0)
(0.156812 -0.0201056 0)
(0.164923 -0.0160774 0)
(0.170817 -0.0119438 0)
(0.174428 -0.0073297 0)
(0.175652 -0.00151529 0)
(0.174341 0.00665356 0)
(0.170112 0.0184907 0)
(0.16227 0.0350423 0)
(0.150422 0.0558797 0)
(0.13306 0.0771019 0)
(0.11233 0.0878314 0)
(0.0682988 0.0553241 0)
(0.0565976 -0.0528055 0)
(0.00655785 0.0550284 0)
(0.0290704 -0.00505947 0)
(0.0473287 -0.0387063 0)
(0.0669327 -0.0524043 0)
(0.0851796 -0.054613 0)
(0.101863 -0.0512914 0)
(0.116935 -0.0458503 0)
(0.130361 -0.0399641 0)
(0.142135 -0.0343302 0)
(0.152272 -0.0290906 0)
(0.160688 -0.0240571 0)
(0.167184 -0.0190398 0)
(0.17163 -0.0138865 0)
(0.174028 -0.00824133 0)
(0.174461 -0.0013782 0)
(0.173024 0.0079041 0)
(0.169683 0.0210051 0)
(0.164203 0.0389981 0)
(0.156764 0.0613499 0)
(0.146932 0.0843702 0)
(0.13472 0.0983226 0)
(0.10373 0.0732517 0)
(0.0778514 -0.0198904 0)
(0.0183161 0.0413424 0)
(0.0490301 -0.014911 0)
(0.0717004 -0.0480348 0)
(0.0898659 -0.0607407 0)
(0.104478 -0.0619877 0)
(0.117202 -0.0578908 0)
(0.128719 -0.0517786 0)
(0.139124 -0.0452339 0)
(0.148352 -0.0389339 0)
(0.156349 -0.0330046 0)
(0.162944 -0.027186 0)
(0.167827 -0.0212746 0)
(0.170823 -0.0152023 0)
(0.172013 -0.00868607 0)
(0.171672 -0.00104048 0)
(0.170161 0.00895046 0)
(0.167736 0.0227424 0)
(0.16441 0.0414131 0)
(0.16064 0.0642703 0)
(0.156648 0.0880906 0)
(0.151015 0.105124 0)
(0.13071 0.0915905 0)
(0.0956358 0.0255953 0)
(0.0251377 0.0214741 0)
(0.0676583 -0.0284488 0)
(0.0954787 -0.057601 0)
(0.111379 -0.0675385 0)
(0.121676 -0.0673265 0)
(0.130326 -0.0626033 0)
(0.138426 -0.0561074 0)
(0.145975 -0.0491572 0)
(0.15277 -0.0423954 0)
(0.158689 -0.0359506 0)
(0.163498 -0.0294773 0)
(0.166785 -0.02276 0)
(0.168337 -0.0158709 0)
(0.168314 -0.00865395 0)
(0.16719 -0.000505077 0)
(0.1656 0.00979238 0)
(0.164064 0.0237633 0)
(0.1627 0.0425147 0)
(0.162111 0.0651286 0)
(0.163085 0.0889399 0)
(0.163616 0.108556 0)
(0.15453 0.109055 0)
(0.114862 0.0829492 0)
(0.0304991 -0.00351486 0)
(0.0874288 -0.0473003 0)
(0.118439 -0.068618 0)
(0.130218 -0.0735591 0)
(0.135667 -0.0713328 0)
(0.140523 -0.0660963 0)
(0.145658 -0.0594052 0)
(0.150721 -0.0521703 0)
(0.155321 -0.045005 0)
(0.159289 -0.0380775 0)
(0.162367 -0.0309717 0)
(0.164087 -0.0234699 0)
(0.164211 -0.0158337 0)
(0.162979 -0.00807799 0)
(0.161054 0.000274939 0)
(0.159355 0.0104572 0)
(0.158645 0.0240934 0)
(0.159025 0.0424313 0)
(0.161198 0.0641325 0)
(0.166592 0.0869813 0)
(0.173725 0.107797 0)
(0.176089 0.120743 0)
(0.149485 0.158775 0)
(0.100407 -0.0705556 0)
(0.313673 -0.0696215 0)
(0.417966 -0.00508134 0)
(0.283784 0.046262 0)
(-0.012127 0.0766588 0)
(-0.381222 0.0831858 0)
(-0.743652 0.0758531 0)
(-1.2065 0.142405 0)
(-1.98728 0.236591 0)
(-3.01951 0.146099 0)
(-3.63635 -0.0857582 0)
(-3.79693 -0.279286 0)
(-3.71795 -0.321214 0)
(-3.55234 -0.297264 0)
(-3.35735 -0.273032 0)
(-2.98724 -0.258376 0)
(-2.27022 -0.284242 0)
(-1.24016 -0.398129 0)
(-0.303336 -0.28373 0)
(0.0524624 -0.126401 0)
(0.198505 -0.108075 0)
(0.247777 0.0356099 0)
(0.0440923 0.159841 0)
(-0.409494 0.249494 0)
(-0.998731 0.291489 0)
(-1.73225 0.34015 0)
(-2.63449 0.462519 0)
(-3.39509 0.524051 0)
(-3.89801 0.440905 0)
(-3.90452 0.268476 0)
(-3.27988 0.140203 0)
(-2.58322 0.0937788 0)
(-2.48527 0.0136948 0)
(-2.46937 -0.111809 0)
(-2.33102 -0.207174 0)
(-1.7269 -0.417869 0)
(-0.911757 -0.712026 0)
(-0.28968 -0.553865 0)
(-0.000370732 -0.159591 0)
(0.116482 -0.142108 0)
(0.105693 0.0952659 0)
(-0.170577 0.309422 0)
(-0.633753 0.465997 0)
(-1.18824 0.57142 0)
(-1.91835 0.69319 0)
(-2.71552 0.776046 0)
(-3.25955 0.711899 0)
(-3.50483 0.431681 0)
(-3.11788 -0.0941941 0)
(-2.43499 -0.456047 0)
(-2.0515 -0.326532 0)
(-1.96813 -0.193881 0)
(-2.01991 -0.28314 0)
(-1.88197 -0.299918 0)
(-1.17428 -0.666509 0)
(-0.607855 -0.976586 0)
(-0.283807 -0.780114 0)
(-0.0378402 -0.165709 0)
(0.0808073 -0.16634 0)
(0.0455702 0.172319 0)
(-0.256485 0.466204 0)
(-0.660545 0.669245 0)
(-1.09035 0.825704 0)
(-1.61455 0.975805 0)
(-2.14808 0.993631 0)
(-2.48931 0.837642 0)
(-2.51742 0.375621 0)
(-2.15666 -0.254855 0)
(-1.83759 -0.5398 0)
(-1.65889 -0.373112 0)
(-1.56488 -0.223186 0)
(-1.47752 -0.328926 0)
(-1.0947 -0.34537 0)
(-0.617656 -0.888394 0)
(-0.327079 -1.1272 0)
(-0.197724 -0.959689 0)
(-0.0494413 -0.141474 0)
(0.112736 -0.182941 0)
(0.0687681 0.258915 0)
(-0.230287 0.609882 0)
(-0.55976 0.826442 0)
(-0.845343 0.992745 0)
(-1.12023 1.12991 0)
(-1.3707 1.1349 0)
(-1.49375 0.894824 0)
(-1.38652 0.344946 0)
(-1.23348 -0.289416 0)
(-1.16384 -0.578355 0)
(-1.14151 -0.439822 0)
(-1.16996 -0.328535 0)
(-1.09258 -0.464348 0)
(-0.331252 -0.408845 0)
(-0.122629 -0.987483 0)
(-0.129829 -1.17465 0)
(-0.0830754 -1.04708 0)
(-0.0231015 -0.151206 0)
(0.231335 -0.240466 0)
(0.154765 0.368865 0)
(-0.135059 0.738388 0)
(-0.393804 0.936051 0)
(-0.564365 1.07778 0)
(-0.6508 1.19171 0)
(-0.676955 1.1673 0)
(-0.620008 0.873862 0)
(-0.525166 0.314408 0)
(-0.506162 -0.278186 0)
(-0.545408 -0.56282 0)
(-0.599784 -0.453631 0)
(-0.693167 -0.381296 0)
(-0.626653 -0.573368 0)
(0.0226508 -0.704958 0)
(0.148704 -1.01227 0)
(0.0102709 -1.16044 0)
(0.00366013 -1.07326 0)
(0.0658341 -0.303243 0)
(0.237221 -0.305123 0)
(0.198416 0.342429 0)
(-0.026398 0.839844 0)
(-0.206897 1.0088 0)
(-0.296467 1.11217 0)
(-0.290694 1.17871 0)
(-0.200484 1.11452 0)
(-0.0613981 0.81347 0)
(0.0367842 0.291964 0)
(0.0142436 -0.249016 0)
(-0.0414426 -0.53666 0)
(-0.131607 -0.456112 0)
(-0.204977 -0.426418 0)
(0.0908804 -0.570741 0)
(0.244582 -0.808292 0)
(0.268996 -1.00646 0)
(0.108485 -1.11581 0)
(0.061641 -1.05972 0)
(0.180836 -0.304179 0)
(0.182438 -0.359427 0)
(0.0787468 0.428278 0)
(0.0640854 0.903252 0)
(-0.0178442 1.04982 0)
(-0.0467804 1.1184 0)
(-0.00250501 1.13943 0)
(0.1219 1.04251 0)
(0.281814 0.748677 0)
(0.380706 0.275922 0)
(0.373868 -0.220216 0)
(0.346475 -0.514697 0)
(0.229495 -0.453555 0)
(0.209882 -0.457344 0)
(0.366133 -0.61913 0)
(0.380319 -0.802211 0)
(0.330974 -0.970899 0)
(0.174055 -1.05999 0)
(0.0999667 -1.02202 0)
(0.0495348 -0.0532335 0)
(0.120567 -0.0901825 0)
(0.147358 -0.0905153 0)
(0.150661 -0.083797 0)
(0.149907 -0.0776733 0)
(0.150661 -0.0715754 0)
(0.152603 -0.0645653 0)
(0.154831 -0.0567991 0)
(0.156727 -0.0488117 0)
(0.158051 -0.0408642 0)
(0.15855 -0.0325169 0)
(0.157872 -0.0236106 0)
(0.155863 -0.014744 0)
(0.152812 -0.00625443 0)
(0.149646 0.00202332 0)
(0.147713 0.0113063 0)
(0.148161 0.0235322 0)
(0.150859 0.0406015 0)
(0.156583 0.0598743 0)
(0.167938 0.0794244 0)
(0.185952 0.0986612 0)
(0.210368 0.118069 0)
(0.255586 0.169721 0)
(0.102688 -0.156566 0)
(0.156536 -0.138716 0)
(0.155301 -0.0938038 0)
(0.147307 -0.0773641 0)
(0.144372 -0.0730655 0)
(0.1449 -0.0696218 0)
(0.146853 -0.0642784 0)
(0.149316 -0.0574451 0)
(0.151495 -0.0501299 0)
(0.15244 -0.0430278 0)
(0.150598 -0.0346645 0)
(0.14699 -0.0244554 0)
(0.142721 -0.0137593 0)
(0.137883 -0.00346745 0)
(0.133263 0.00497066 0)
(0.130724 0.0121142 0)
(0.132403 0.0205192 0)
(0.13684 0.0350409 0)
(0.144465 0.0491624 0)
(0.159137 0.0610053 0)
(0.181232 0.0726306 0)
(0.208155 0.0806042 0)
(0.248058 0.0847071 0)
(0.08587 -0.283933 0)
(0.0886043 -0.12218 0)
(0.11412 -0.078014 0)
(0.132916 -0.07022 0)
(0.139573 -0.069182 0)
(0.140959 -0.0668702 0)
(0.141642 -0.0619854 0)
(0.143054 -0.0550852 0)
(0.144736 -0.0471964 0)
(0.144223 -0.0392498 0)
(0.132042 -0.0294084 0)
(0.121434 -0.0188351 0)
(0.11748 -0.00850481 0)
(0.114611 0.00115493 0)
(0.113716 0.00608503 0)
(0.115725 0.0101635 0)
(0.11978 0.0174471 0)
(0.123762 0.0309569 0)
(0.131795 0.0382382 0)
(0.148048 0.0398522 0)
(0.170333 0.0455569 0)
(0.195821 0.0473541 0)
(0.22797 0.0437431 0)
(-0.0792701 -0.36625 0)
(-0.033453 -0.191931 0)
(0.00633983 -0.116209 0)
(0.0460668 -0.0900701 0)
(0.0776006 -0.0806134 0)
(0.101684 -0.0753384 0)
(0.119538 -0.0699482 0)
(0.131813 -0.0619577 0)
(0.138278 -0.0488792 0)
(0.13861 -0.0273698 0)
(0.136529 0.007683 0)
(0.122052 -0.00536166 0)
(0.112817 -0.00493471 0)
(0.109046 0.00330088 0)
(0.104242 0.00817408 0)
(0.0982144 0.00972484 0)
(0.0971848 0.0129105 0)
(0.106784 0.0252356 0)
(0.12615 0.0268309 0)
(0.146458 0.0248068 0)
(0.166159 0.0271328 0)
(0.18978 0.0225496 0)
(0.218172 0.0138682 0)
(-0.039377 -0.202723 0)
(-0.0388189 -0.20085 0)
(-0.0104696 -0.163444 0)
(0.021415 -0.136991 0)
(0.0510374 -0.118463 0)
(0.0759351 -0.103662 0)
(0.0959679 -0.089894 0)
(0.111584 -0.0751117 0)
(0.123561 -0.0574253 0)
(0.133954 -0.0352588 0)
(0.147073 -0.00972515 0)
(0.156616 0.0038 0)
(0.157885 0.00883135 0)
(0.152705 0.0134688 0)
(0.14532 0.0247424 0)
(0.122452 0.019579 0)
(0.0989194 0.00916653 0)
(0.0991417 0.0189475 0)
(0.120236 0.0119503 0)
(0.140295 0.0057427 0)
(0.165375 0.00919052 0)
(0.194713 0.00402977 0)
(0.222483 -0.00210595 0)
(-0.011497 -0.221751 0)
(-0.0156324 -0.212946 0)
(-0.00310067 -0.187177 0)
(0.0170638 -0.163169 0)
(0.0390147 -0.142902 0)
(0.0596111 -0.124971 0)
(0.0778816 -0.107807 0)
(0.0938764 -0.0900547 0)
(0.108328 -0.0706399 0)
(0.122832 -0.049275 0)
(0.139191 -0.0279166 0)
(0.154256 -0.0127863 0)
(0.164629 8.46553e-05 0)
(0.171157 0.0144812 0)
(0.177337 0.0310438 0)
(0.180584 0.0377341 0)
(0.178307 0.020905 0)
(0.181042 -0.00683607 0)
(0.159024 -0.0174635 0)
(0.1501 -0.0141972 0)
(0.165719 -0.00737025 0)
(0.192979 -0.0179427 0)
(0.214292 -0.0280611 0)
(-0.00559504 -0.205173 0)
(-0.00580286 -0.215505 0)
(0.00300692 -0.200031 0)
(0.0164491 -0.180482 0)
(0.0322173 -0.161152 0)
(0.048358 -0.142548 0)
(0.0640105 -0.124183 0)
(0.079049 -0.105393 0)
(0.0938867 -0.0856751 0)
(0.109359 -0.0651102 0)
(0.126115 -0.044969 0)
(0.142767 -0.0275772 0)
(0.157661 -0.0115539 0)
(0.171242 0.00414152 0)
(0.185403 0.0186917 0)
(0.199391 0.0261083 0)
(0.209952 0.0235231 0)
(0.216942 0.0162529 0)
(0.218109 -0.000870355 0)
(0.221047 -0.0402543 0)
(0.230031 -0.0750145 0)
(0.224218 -0.06142 0)
(0.220451 -0.0484555 0)
(-0.00111707 -0.202738 0)
(7.91304e-06 -0.219292 0)
(0.00597156 -0.208972 0)
(0.0150939 -0.192686 0)
(0.0264695 -0.174926 0)
(0.039036 -0.156864 0)
(0.0521963 -0.138606 0)
(0.0657816 -0.119955 0)
(0.0799616 -0.100753 0)
(0.0951084 -0.0811736 0)
(0.111421 -0.0619418 0)
(0.128298 -0.044092 0)
(0.145047 -0.0274346 0)
(0.16189 -0.0119586 0)
(0.179649 0.00122004 0)
(0.197856 0.00907254 0)
(0.214276 0.0102728 0)
(0.227715 0.00669869 0)
(0.237728 -0.00172623 0)
(0.243434 -0.0170177 0)
(0.243855 -0.032135 0)
(0.242045 -0.0446812 0)
(0.243829 -0.0653764 0)
(0.000858655 -0.203611 0)
(0.00166814 -0.22258 0)
(0.00561806 -0.215129 0)
(0.0118807 -0.201337 0)
(0.0202035 -0.185345 0)
(0.0300635 -0.168465 0)
(0.0410892 -0.151082 0)
(0.0531293 -0.133263 0)
(0.066225 -0.115048 0)
(0.0805169 -0.0966363 0)
(0.0960484 -0.0784906 0)
(0.112549 -0.0611918 0)
(0.129725 -0.0449694 0)
(0.147633 -0.0302069 0)
(0.166461 -0.0178987 0)
(0.185693 -0.00977363 0)
(0.203895 -0.006779 0)
(0.219995 -0.00834643 0)
(0.233257 -0.014252 0)
(0.242162 -0.0240916 0)
(0.246313 -0.0334115 0)
(0.249318 -0.0392647 0)
(0.253706 -0.0455847 0)
(0.000859047 -0.204748 0)
(0.000743451 -0.224497 0)
(0.00301959 -0.219131 0)
(0.0071975 -0.20746 0)
(0.0132812 -0.193281 0)
(0.0210304 -0.177894 0)
(0.0302258 -0.161798 0)
(0.0407524 -0.145202 0)
(0.0525971 -0.128248 0)
(0.0657968 -0.111151 0)
(0.0803403 -0.0942525 0)
(0.0960878 -0.0779688 0)
(0.112879 -0.0626493 0)
(0.130645 -0.0487763 0)
(0.149268 -0.0371424 0)
(0.168213 -0.0288004 0)
(0.186476 -0.024399 0)
(0.203125 -0.0238518 0)
(0.217352 -0.0269567 0)
(0.228088 -0.0329789 0)
(0.235101 -0.039434 0)
(0.239846 -0.0446081 0)
(0.242846 -0.049487 0)
(-7.69021e-05 -0.204917 0)
(-0.00137964 -0.224958 0)
(-0.000585757 -0.221404 0)
(0.001894 -0.211655 0)
(0.00617795 -0.199272 0)
(0.0121602 -0.185507 0)
(0.0197134 -0.170904 0)
(0.0287567 -0.155738 0)
(0.0392606 -0.140207 0)
(0.0512191 -0.124529 0)
(0.0645996 -0.108989 0)
(0.0793064 -0.0939263 0)
(0.0952099 -0.0796991 0)
(0.112167 -0.0667627 0)
(0.129933 -0.0557224 0)
(0.148002 -0.0472577 0)
(0.165602 -0.0418119 0)
(0.181934 -0.0394257 0)
(0.196248 -0.0399062 0)
(0.207777 -0.0426244 0)
(0.216234 -0.0461581 0)
(0.221985 -0.0492965 0)
(0.225272 -0.0514226 0)
(-0.00128022 -0.203244 0)
(-0.00375752 -0.224057 0)
(-0.00426927 -0.222185 0)
(-0.00325295 -0.214238 0)
(-0.00052336 -0.203606 0)
(0.00388582 -0.1915 0)
(0.00990196 -0.178476 0)
(0.0174723 -0.164842 0)
(0.0265681 -0.150819 0)
(0.0371681 -0.136623 0)
(0.0492307 -0.122503 0)
(0.0626722 -0.108748 0)
(0.0773654 -0.0956788 0)
(0.0931313 -0.0836809 0)
(0.109686 -0.0732078 0)
(0.126574 -0.0647174 0)
(0.143171 -0.0585161 0)
(0.158803 -0.0546572 0)
(0.172807 -0.0529633 0)
(0.184564 -0.0529338 0)
(0.193722 -0.0536469 0)
(0.20019 -0.054137 0)
(0.204092 -0.0534532 0)
(-0.00233157 -0.199974 0)
(-0.00579181 -0.221888 0)
(-0.00744498 -0.221641 0)
(-0.00770502 -0.215399 0)
(-0.00635645 -0.206454 0)
(-0.0033882 -0.195986 0)
(0.00116557 -0.184557 0)
(0.00727574 -0.172485 0)
(0.0149213 -0.160001 0)
(0.0240787 -0.14731 0)
(0.0347043 -0.134632 0)
(0.0467183 -0.122211 0)
(0.0599944 -0.110317 0)
(0.0743441 -0.0992568 0)
(0.0894868 -0.089364 0)
(0.10502 -0.0809534 0)
(0.120431 -0.0742341 0)
(0.135152 -0.0692423 0)
(0.148615 -0.065818 0)
(0.160292 -0.0635516 0)
(0.169805 -0.0617495 0)
(0.176876 -0.0595771 0)
(0.181525 -0.0560644 0)
(-0.00305459 -0.195467 0)
(-0.00723874 -0.218686 0)
(-0.00982508 -0.219976 0)
(-0.0111716 -0.215314 0)
(-0.0110415 -0.207954 0)
(-0.00938843 -0.199062 0)
(-0.00621459 -0.189193 0)
(-0.00152641 -0.178666 0)
(0.00466676 -0.167707 0)
(0.0123449 -0.156509 0)
(0.0214671 -0.145263 0)
(0.0319583 -0.134171 0)
(0.0436982 -0.123449 0)
(0.0565062 -0.113332 0)
(0.0701248 -0.104058 0)
(0.0842065 -0.0958416 0)
(0.0983252 -0.0888209 0)
(0.11201 -0.0830067 0)
(0.124782 -0.07825 0)
(0.136187 -0.0741978 0)
(0.145859 -0.0702674 0)
(0.153451 -0.0656919 0)
(0.158927 -0.0595065 0)
(-0.00342637 -0.190186 0)
(-0.00805485 -0.214737 0)
(-0.0113416 -0.217408 0)
(-0.0135701 -0.214163 0)
(-0.0144833 -0.208256 0)
(-0.0140018 -0.200841 0)
(-0.0120973 -0.19246 0)
(-0.00875428 -0.183423 0)
(-0.00396849 -0.173943 0)
(0.00224825 -0.164198 0)
(0.00986083 -0.154349 0)
(0.0188018 -0.144559 0)
(0.0289619 -0.134995 0)
(0.0401788 -0.125826 0)
(0.0522268 -0.117219 0)
(0.0648127 -0.109314 0)
(0.0775856 -0.102195 0)
(0.0901592 -0.0958482 0)
(0.102138 -0.0901285 0)
(0.11314 -0.0847151 0)
(0.122838 -0.0790782 0)
(0.130878 -0.0724764 0)
(0.137215 -0.0639215 0)
(-0.00349895 -0.18457 0)
(-0.00831135 -0.210328 0)
(-0.0120673 -0.214167 0)
(-0.0149675 -0.212144 0)
(-0.0167359 -0.207531 0)
(-0.0172604 -0.201464 0)
(-0.0164842 -0.194469 0)
(-0.0143706 -0.186838 0)
(-0.0109005 -0.178767 0)
(-0.00607554 -0.170411 0)
(7.78122e-05 -0.161904 0)
(0.00750265 -0.153373 0)
(0.0161042 -0.144941 0)
(0.025743 -0.136724 0)
(0.0362289 -0.12883 0)
(0.0473207 -0.121347 0)
(0.0587349 -0.114315 0)
(0.0701618 -0.107702 0)
(0.0812837 -0.101363 0)
(0.0917922 -0.0949936 0)
(0.101413 -0.088086 0)
(0.109821 -0.0798985 0)
(0.117007 -0.0693981 0)
(-0.00335148 -0.178974 0)
(-0.00813488 -0.205716 0)
(-0.0121528 -0.210472 0)
(-0.0155236 -0.209459 0)
(-0.0179558 -0.205961 0)
(-0.0193075 -0.201098 0)
(-0.019496 -0.195366 0)
(-0.0184652 -0.189036 0)
(-0.0161822 -0.182282 0)
(-0.0126374 -0.175234 0)
(-0.00784673 -0.167998 0)
(-0.00185497 -0.16067 0)
(0.00526021 -0.153332 0)
(0.0133837 -0.14606 0)
(0.0223609 -0.138918 0)
(0.0319997 -0.131951 0)
(0.0420776 -0.125172 0)
(0.0523547 -0.118534 0)
(0.0625869 -0.11189 0)
(0.0725368 -0.104945 0)
(0.0819927 -0.0971983 0)
(0.0906794 -0.087892 0)
(0.0986477 -0.075939 0)
(-0.00306345 -0.173647 0)
(-0.00766742 -0.201104 0)
(-0.0117798 -0.206519 0)
(-0.0154429 -0.206297 0)
(-0.0183572 -0.203735 0)
(-0.0203563 -0.19992 0)
(-0.0213358 -0.195318 0)
(-0.021224 -0.190171 0)
(-0.0199759 -0.184626 0)
(-0.0175715 -0.17879 0)
(-0.0140156 -0.172742 0)
(-0.00933973 -0.166548 0)
(-0.00360394 -0.160258 0)
(0.00310138 -0.153915 0)
(0.0106557 -0.147548 0)
(0.0189118 -0.141176 0)
(0.0277025 -0.13479 0)
(0.0368515 -0.128336 0)
(0.0461827 -0.121669 0)
(0.0555273 -0.114499 0)
(0.0647382 -0.106321 0)
(0.0735973 -0.0963553 0)
(0.0822243 -0.0834568 0)
(-0.002704 -0.168744 0)
(-0.00704216 -0.196629 0)
(-0.0111283 -0.202461 0)
(-0.0149379 -0.202829 0)
(-0.0181728 -0.201028 0)
(-0.0206497 -0.198108 0)
(-0.0222497 -0.194497 0)
(-0.0228896 -0.190406 0)
(-0.0225154 -0.185955 0)
(-0.0210983 -0.181225 0)
(-0.018633 -0.176272 0)
(-0.0151379 -0.171134 0)
(-0.0106555 -0.165837 0)
(-0.00525235 -0.160394 0)
(0.000982752 -0.154813 0)
(0.00794292 -0.149093 0)
(0.0155107 -0.143216 0)
(0.0235668 -0.137125 0)
(0.0319974 -0.13068 0)
(0.0406972 -0.123594 0)
(0.0495812 -0.115357 0)
(0.0584878 -0.105157 0)
(0.0676012 -0.0917876 0)
(-0.0023286 -0.164328 0)
(-0.00637016 -0.19237 0)
(-0.0103557 -0.198412 0)
(-0.0142021 -0.199194 0)
(-0.017623 -0.197996 0)
(-0.020428 -0.195825 0)
(-0.0224909 -0.19307 0)
(-0.0237235 -0.189906 0)
(-0.0240659 -0.186429 0)
(-0.0234832 -0.182693 0)
(-0.0219616 -0.178734 0)
(-0.0195078 -0.174567 0)
(-0.0161479 -0.170195 0)
(-0.0119264 -0.165614 0)
(-0.00690301 -0.160815 0)
(-0.00114823 -0.155785 0)
(0.00526368 -0.150505 0)
(0.0122639 -0.144922 0)
(0.0197943 -0.138905 0)
(0.0278072 -0.132171 0)
(0.0362735 -0.124197 0)
(0.0450834 -0.114135 0)
(0.0544733 -0.10071 0)
(-0.00197893 -0.1604 0)
(-0.00573396 -0.188351 0)
(-0.00958467 -0.194442 0)
(-0.0133931 -0.195498 0)
(-0.0168951 -0.194769 0)
(-0.0199028 -0.193216 0)
(-0.0222915 -0.191187 0)
(-0.0239735 -0.188825 0)
(-0.0248884 -0.186199 0)
(-0.0249973 -0.183342 0)
(-0.0242806 -0.180269 0)
(-0.0227349 -0.176979 0)
(-0.0203723 -0.173459 0)
(-0.0172176 -0.16969 0)
(-0.0133052 -0.165651 0)
(-0.00867351 -0.16133 0)
(-0.00335804 -0.156708 0)
(0.00261529 -0.151745 0)
(0.00923642 -0.146322 0)
(0.0165084 -0.140158 0)
(0.0244515 -0.132715 0)
(0.0330005 -0.1231 0)
(0.0424315 -0.109961 0)
(-0.00168125 -0.156911 0)
(-0.00518543 -0.184561 0)
(-0.00889762 -0.190588 0)
(-0.0126241 -0.191816 0)
(-0.0161312 -0.191449 0)
(-0.0192425 -0.190401 0)
(-0.0218432 -0.188979 0)
(-0.0238523 -0.187298 0)
(-0.0252132 -0.185401 0)
(-0.0258872 -0.183305 0)
(-0.0258509 -0.181008 0)
(-0.0250935 -0.178496 0)
(-0.0236154 -0.175743 0)
(-0.0214252 -0.172722 0)
(-0.0185357 -0.169409 0)
(-0.0149584 -0.165792 0)
(-0.0106963 -0.161864 0)
(-0.00573674 -0.157598 0)
(-4.88264e-05 -0.152889 0)
(0.00641221 -0.147464 0)
(0.013709 -0.140764 0)
(0.0218149 -0.131841 0)
(0.0310343 -0.119252 0)
(-0.00144222 -0.153787 0)
(-0.00474641 -0.180963 0)
(-0.00833786 -0.186859 0)
(-0.0119631 -0.188194 0)
(-0.0154249 -0.188112 0)
(-0.018566 -0.187474 0)
(-0.0212882 -0.186554 0)
(-0.0235239 -0.185439 0)
(-0.0252246 -0.184154 0)
(-0.0263553 -0.182701 0)
(-0.0268918 -0.181066 0)
(-0.026819 -0.179226 0)
(-0.0261282 -0.177147 0)
(-0.0248152 -0.174798 0)
(-0.0228757 -0.172156 0)
(-0.0202994 -0.169218 0)
(-0.0170628 -0.16599 0)
(-0.0131222 -0.162463 0)
(-0.0084113 -0.15855 0)
(-0.00284724 -0.153983 0)
(0.00366563 -0.148181 0)
(0.0111329 -0.140133 0)
(0.019881 -0.128288 0)
(-0.0012496 -0.150953 0)
(-0.00441382 -0.177508 0)
(-0.00791545 -0.183244 0)
(-0.0114382 -0.184657 0)
(-0.0148251 -0.184807 0)
(-0.0179434 -0.184507 0)
(-0.0207183 -0.183996 0)
(-0.0231003 -0.183342 0)
(-0.0250535 -0.182555 0)
(-0.0265503 -0.181628 0)
(-0.0275689 -0.18054 0)
(-0.0280922 -0.179262 0)
(-0.0281061 -0.177756 0)
(-0.0275971 -0.175991 0)
(-0.0265483 -0.17395 0)
(-0.0249329 -0.171641 0)
(-0.0227073 -0.169088 0)
(-0.0198034 -0.166307 0)
(-0.0161264 -0.163231 0)
(-0.0115624 -0.159597 0)
(-0.0059819 -0.154797 0)
(0.00065 -0.147748 0)
(0.00867312 -0.136786 0)
(-0.00107752 -0.148346 0)
(-0.00416927 -0.17414 0)
(-0.00761714 -0.17972 0)
(-0.0110467 -0.181211 0)
(-0.0143431 -0.181567 0)
(-0.0174029 -0.18155 0)
(-0.020179 -0.181371 0)
(-0.0226447 -0.181082 0)
(-0.0247799 -0.180686 0)
(-0.0265674 -0.180171 0)
(-0.027991 -0.179514 0)
(-0.0290347 -0.178683 0)
(-0.0296819 -0.177642 0)
(-0.0299139 -0.176362 0)
(-0.0297052 -0.174835 0)
(-0.0290184 -0.173083 0)
(-0.0277957 -0.171153 0)
(-0.0259519 -0.169087 0)
(-0.0233704 -0.166845 0)
(-0.0199111 -0.164172 0)
(-0.0154158 -0.160434 0)
(-0.00981266 -0.154471 0)
(-0.0027479 -0.144488 0)
(-0.000901415 -0.145925 0)
(-0.00399124 -0.170808 0)
(-0.00741764 -0.17626 0)
(-0.0107656 -0.177855 0)
(-0.0139635 -0.178412 0)
(-0.01694 -0.178641 0)
(-0.0196793 -0.178728 0)
(-0.0221796 -0.178718 0)
(-0.0244394 -0.178612 0)
(-0.0264543 -0.178399 0)
(-0.028216 -0.178058 0)
(-0.0297126 -0.177558 0)
(-0.0309283 -0.176869 0)
(-0.0318422 -0.175965 0)
(-0.0324252 -0.17485 0)
(-0.0326342 -0.173563 0)
(-0.0324043 -0.172176 0)
(-0.0316394 -0.170762 0)
(-0.0302087 -0.169311 0)
(-0.0279507 -0.167583 0)
(-0.0246794 -0.164923 0)
(-0.0202823 -0.160096 0)
(-0.0143851 -0.151175 0)
(-0.000718486 -0.143666 0)
(-0.00386428 -0.167467 0)
(-0.00728831 -0.172841 0)
(-0.0105604 -0.174587 0)
(-0.0136528 -0.175357 0)
(-0.0165275 -0.175806 0)
(-0.0192011 -0.176105 0)
(-0.0216973 -0.176297 0)
(-0.024034 -0.176388 0)
(-0.0262212 -0.176373 0)
(-0.0282605 -0.176236 0)
(-0.0301464 -0.175953 0)
(-0.0318663 -0.175498 0)
(-0.033401 -0.174856 0)
(-0.0347217 -0.174039 0)
(-0.0357851 -0.173106 0)
(-0.036525 -0.172157 0)
(-0.0368426 -0.1713 0)
(-0.0365996 -0.170559 0)
(-0.0356188 -0.169719 0)
(-0.0336875 -0.168115 0)
(-0.0306469 -0.164447 0)
(-0.0260889 -0.156663 0)
(-0.000552751 -0.141548 0)
(-0.00378017 -0.164096 0)
(-0.00719989 -0.169455 0)
(-0.0103906 -0.171409 0)
(-0.0133676 -0.172411 0)
(-0.0161253 -0.173065 0)
(-0.0187106 -0.173532 0)
(-0.0211712 -0.173859 0)
(-0.0235441 -0.174063 0)
(-0.0258537 -0.174148 0)
(-0.0281127 -0.17411 0)
(-0.0303236 -0.173932 0)
(-0.0324796 -0.173596 0)
(-0.0345659 -0.173095 0)
(-0.0365578 -0.172455 0)
(-0.0384168 -0.171753 0)
(-0.0400817 -0.171118 0)
(-0.0414586 -0.170693 0)
(-0.04241 -0.170547 0)
(-0.0427503 -0.170499 0)
(-0.0422425 -0.169892 0)
(-0.040677 -0.167382 0)
(-0.0375974 -0.160807 0)
(-0.000434548 -0.139538 0)
(-0.00372854 -0.160697 0)
(-0.00712009 -0.166114 0)
(-0.0102124 -0.168335 0)
(-0.0130608 -0.16959 0)
(-0.0156883 -0.170436 0)
(-0.0181672 -0.171033 0)
(-0.0205665 -0.171438 0)
(-0.0229395 -0.17168 0)
(-0.0253246 -0.171778 0)
(-0.0277455 -0.171741 0)
(-0.0302137 -0.171562 0)
(-0.03273 -0.171234 0)
(-0.0352863 -0.170757 0)
(-0.0378653 -0.17017 0)
(-0.0404371 -0.169568 0)
(-0.0429519 -0.169105 0)
(-0.0453284 -0.168966 0)
(-0.0474394 -0.169266 0)
(-0.0491006 -0.169876 0)
(-0.0500577 -0.17017 0)
(-0.0500494 -0.168789 0)
(-0.0485603 -0.163491 0)
(-0.000374409 -0.137591 0)
(-0.00368612 -0.157301 0)
(-0.00701206 -0.162846 0)
(-0.00998254 -0.165382 0)
(-0.0126883 -0.166906 0)
(-0.0151742 -0.167934 0)
(-0.0175329 -0.168628 0)
(-0.019849 -0.169061 0)
(-0.0221897 -0.169278 0)
(-0.0246047 -0.169315 0)
(-0.0271284 -0.169193 0)
(-0.0297814 -0.168921 0)
(-0.0325729 -0.168497 0)
(-0.0355032 -0.167934 0)
(-0.0385643 -0.167281 0)
(-0.0417386 -0.166646 0)
(-0.0449923 -0.166208 0)
(-0.0482644 -0.166189 0)
(-0.051449 -0.16676 0)
(-0.0543755 -0.167855 0)
(-0.0567845 -0.168909 0)
(-0.0583704 -0.16859 0)
(-0.058556 -0.164616 0)
(-0.000353632 -0.135677 0)
(-0.00361653 -0.153951 0)
(-0.00684102 -0.159686 0)
(-0.00966638 -0.16257 0)
(-0.0122163 -0.16437 0)
(-0.0145517 -0.165568 0)
(-0.0167785 -0.166334 0)
(-0.0189925 -0.166755 0)
(-0.0212704 -0.166898 0)
(-0.023671 -0.166812 0)
(-0.026237 -0.166536 0)
(-0.0289977 -0.166089 0)
(-0.0319707 -0.165483 0)
(-0.035165 -0.164737 0)
(-0.0385832 -0.163908 0)
(-0.0422215 -0.163114 0)
(-0.0460658 -0.162555 0)
(-0.0500818 -0.162484 0)
(-0.0541952 -0.163128 0)
(-0.0582647 -0.164501 0)
(-0.0620443 -0.166126 0)
(-0.065201 -0.166746 0)
(-0.0671071 -0.164099 0)
(-0.000340203 -0.133818 0)
(-0.00349112 -0.150691 0)
(-0.00659128 -0.156663 0)
(-0.00925012 -0.159916 0)
(-0.0116311 -0.161994 0)
(-0.0138059 -0.163349 0)
(-0.015889 -0.164164 0)
(-0.0179825 -0.164545 0)
(-0.0201685 -0.164574 0)
(-0.022511 -0.164322 0)
(-0.0250587 -0.163838 0)
(-0.0278475 -0.163157 0)
(-0.0309023 -0.162299 0)
(-0.0342404 -0.161292 0)
(-0.0378742 -0.160195 0)
(-0.0418142 -0.159134 0)
(-0.0460673 -0.158318 0)
(-0.0506294 -0.158028 0)
(-0.0554666 -0.15854 0)
(-0.0604824 -0.159953 0)
(-0.0654672 -0.16191 0)
(-0.0700897 -0.163278 0)
(-0.0736988 -0.161882 0)
(-0.000340284 -0.13208 0)
(-0.0033192 -0.147552 0)
(-0.00628672 -0.153802 0)
(-0.0087531 -0.157438 0)
(-0.0109449 -0.15979 0)
(-0.0129425 -0.16129 0)
(-0.0148652 -0.162135 0)
(-0.0168176 -0.162453 0)
(-0.0188824 -0.162344 0)
(-0.0211246 -0.161895 0)
(-0.0235952 -0.161171 0)
(-0.0263333 -0.160215 0)
(-0.029369 -0.159059 0)
(-0.032726 -0.157734 0)
(-0.0364253 -0.156303 0)
(-0.0404897 -0.15489 0)
(-0.0449456 -0.153706 0)
(-0.0498191 -0.153048 0)
(-0.0551208 -0.153231 0)
(-0.0608111 -0.154438 0)
(-0.0667415 -0.156445 0)
(-0.0726188 -0.158292 0)
(-0.0778138 -0.157966 0)
(-0.000455203 -0.13046 0)
(-0.0031639 -0.144553 0)
(-0.00600099 -0.15113 0)
(-0.00823172 -0.155164 0)
(-0.0101959 -0.157783 0)
(-0.0119851 -0.159411 0)
(-0.0137213 -0.160269 0)
(-0.0155068 -0.160506 0)
(-0.0174202 -0.160244 0)
(-0.019522 -0.159583 0)
(-0.0218603 -0.158601 0)
(-0.0244738 -0.157354 0)
(-0.0273941 -0.155877 0)
(-0.0306487 -0.154205 0)
(-0.0342646 -0.1524 0)
(-0.0382736 -0.150581 0)
(-0.0427173 -0.148954 0)
(-0.0476475 -0.147813 0)
(-0.0531167 -0.147499 0)
(-0.0591471 -0.148264 0)
(-0.0656699 -0.15002 0)
(-0.0724692 -0.152014 0)
(-0.0789938 -0.15246 0)
(-0.000894444 -0.128781 0)
(-0.00313914 -0.141704 0)
(-0.00585064 -0.148694 0)
(-0.00777041 -0.153145 0)
(-0.00943912 -0.156017 0)
(-0.0109678 -0.15775 0)
(-0.0124783 -0.158596 0)
(-0.0140651 -0.158734 0)
(-0.0157956 -0.158307 0)
(-0.0177196 -0.15743 0)
(-0.0198766 -0.156192 0)
(-0.0222999 -0.154654 0)
(-0.0250192 -0.152856 0)
(-0.028062 -0.150835 0)
(-0.0314579 -0.148648 0)
(-0.0352437 -0.146406 0)
(-0.0394697 -0.144299 0)
(-0.044205 -0.14261 0)
(-0.0495345 -0.141681 0)
(-0.0555364 -0.141812 0)
(-0.0622275 -0.143036 0)
(-0.0694978 -0.144811 0)
(-0.0769309 -0.14563 0)
(-0.0019189 -0.126769 0)
(-0.00340618 -0.139049 0)
(-0.00597375 -0.146579 0)
(-0.00745959 -0.151468 0)
(-0.00872798 -0.154566 0)
(-0.00992075 -0.15636 0)
(-0.0111545 -0.157156 0)
(-0.0125061 -0.15717 0)
(-0.0140227 -0.156568 0)
(-0.0157357 -0.155478 0)
(-0.0176701 -0.153995 0)
(-0.0198494 -0.152184 0)
(-0.0222971 -0.150087 0)
(-0.0250378 -0.147738 0)
(-0.0280998 -0.14519 0)
(-0.03152 -0.142541 0)
(-0.0353508 -0.139962 0)
(-0.0396682 -0.137711 0)
(-0.044575 -0.136118 0)
(-0.0501885 -0.135498 0)
(-0.0565997 -0.135973 0)
(-0.063811 -0.137192 0)
(-0.0715779 -0.137938 0)
(-0.00380243 -0.124072 0)
(-0.0041658 -0.136692 0)
(-0.00648971 -0.144936 0)
(-0.00736099 -0.150278 0)
(-0.00808736 -0.153538 0)
(-0.00885302 -0.155314 0)
(-0.00975519 -0.155996 0)
(-0.0108367 -0.155848 0)
(-0.0121125 -0.155056 0)
(-0.0135873 -0.153759 0)
(-0.0152669 -0.152053 0)
(-0.0171613 -0.15 0)
(-0.0192849 -0.14764 0)
(-0.0216565 -0.145006 0)
(-0.0242998 -0.142141 0)
(-0.0272477 -0.13913 0)
(-0.0305485 -0.136124 0)
(-0.0342753 -0.133352 0)
(-0.0385331 -0.131114 0)
(-0.0434553 -0.129718 0)
(-0.0491789 -0.129333 0)
(-0.0557979 -0.129754 0)
(-0.0632392 -0.130026 0)
(-0.00693418 -0.119863 0)
(-0.00565186 -0.134738 0)
(-0.0074313 -0.144002 0)
(-0.00745382 -0.149787 0)
(-0.00747957 -0.15308 0)
(-0.00773462 -0.154702 0)
(-0.0082653 -0.155172 0)
(-0.0090553 -0.154806 0)
(-0.0100732 -0.153808 0)
(-0.0112913 -0.152311 0)
(-0.0126931 -0.150407 0)
(-0.0142739 -0.148151 0)
(-0.0160384 -0.145576 0)
(-0.0179976 -0.142709 0)