/*--------------------------------*- C++ -*----------------------------------*\
| =========                 |                                                 |
| \\      /  F ield         | OpenFOAM: The Open Source CFD Toolbox           |
|  \\    /   O peration     | Version:  v2012                                 |
|   \\  /    A nd           | Website:  www.openfoam.com                      |
|    \\/     M anipulation  |                                                 |
\*---------------------------------------------------------------------------*/
FoamFile
{
    version     2.0;
    format      ascii;
    class       volScalarField;
    location    "0.3";
    object      alpha.water;
}
// * * * * * * * * * * * * * * * * * * * * * * * * * * * * * * * * * * * * * //

dimensions      [0 0 0 0 0 0 0];


internalField   nonuniform List<scalar> 
2268
(
1
1
1
1
1
1
1
1
1
1
1
1
1
1
1
1
1
1
1
1
0.999389
0.908626
0.905586
1
1
1
1
1
1
1
1
1
1
1
1
1
1
1
1
1
1
1
1
1
0.983524
0.928359
1
1
1
1
1
1
1
1
1
1
1
1
1
1
1
1
1
1
1
1
1
0.999998
0.981076
1
1
1
1
1
1
1
1
1
1
1
1
1
1
1
1
1
1
1
1
1
0.999939
0.979854
1
1
1
1
1
1
1
1
1
1
1
1
1
1
1
1
1
1
1
1
1
1
0.979788
1
1
1
1
1
1
1
1
1
1
1
1
1
1
1
1
1
1
1
1
1
1
0.980193
1
1
1
1
1
1
1
1
1
1
1
1
1
1
1
1
1
1
1
1
1
1
0.985986
1
1
1
1
1
1
1
1
1
1
1
1
1
1
1
1
1
1
1
1
1
1
0.992214
2.97765e-17
1.61526e-17
2.17577e-18
1.35881e-19
1.41428e-19
2.42491e-19
4.11251e-20
2.496e-21
5.56412e-23
1.60471e-24
1.52156e-26
1.96541e-28
2.9186e-30
4.63965e-32
2.17077e-33
2.78913e-35
2.07434e-37
6.85841e-40
3.30695e-40
1.95458e-16
1.89572e-16
1.31617e-16
3.83033e-17
1.51296e-17
1.80674e-18
3.28692e-19
8.0743e-20
1.00724e-20
3.46988e-22
2.70461e-24
1.52151e-26
1.96535e-28
2.91855e-30
1.4493e-31
1.55393e-33
8.5382e-36
1.79238e-38
3.30695e-40
3.85188e-15
1.50752e-14
2.49874e-14
2.56983e-14
1.48563e-15
2.66079e-16
6.44828e-17
1.22188e-17
1.08907e-18
3.67561e-20
4.05209e-22
1.97558e-24
2.4814e-26
3.39522e-28
7.90763e-30
6.68317e-32
3.96073e-34
1.41818e-36
1.73018e-38
6.94838e-14
3.58323e-13
6.04409e-13
4.28785e-13
2.45296e-14
1.42156e-14
4.27911e-15
8.62764e-16
6.72772e-17
2.44113e-18
3.25547e-20
1.19093e-22
1.44203e-24
2.10598e-26
3.69469e-28
3.35323e-30
2.44266e-32
9.43809e-35
1.39067e-36
1.08928e-12
5.79571e-12
7.22115e-12
8.05478e-13
1.55127e-13
1.95209e-13
1.09054e-13
3.02707e-14
2.94848e-15
1.18519e-16
2.03148e-18
5.97777e-21
7.18202e-23
1.07439e-24
1.69427e-26
1.81865e-28
1.38965e-30
5.66026e-33
9.22224e-35
1.05176e-11
3.52479e-11
2.93765e-11
7.61873e-12
4.31253e-12
5.75364e-12
1.89676e-12
3.62284e-13
9.4735e-14
5.58227e-15
1.16216e-16
2.61278e-19
3.247e-21
5.10954e-23
8.52041e-25
9.55741e-27
7.64937e-29
3.27035e-31
5.51977e-33
1.04077e-11
1.25204e-11
1.5269e-11
5.16278e-11
1.21633e-10
1.00973e-10
3.65428e-11
7.20532e-12
1.56061e-12
1.47786e-13
4.01519e-15
1.01575e-17
1.36494e-19
2.31185e-21
4.16297e-23
4.9517e-25
4.1916e-27
1.88488e-29
3.1813e-31
6.31329e-12
1.42418e-11
1.62883e-11
-3.36697e-11
3.50114e-09
2.21154e-09
5.41901e-10
8.84168e-11
9.16504e-12
5.86117e-13
1.91737e-14
3.59714e-16
5.47218e-18
1.01799e-19
2.01654e-21
2.58094e-23
2.33934e-25
1.117e-27
1.82876e-29
1
1
1
1
1
1
1
1
1
1
1
1
1
1
1
1
1
1
1
1
1
1
0.994348
1
0.999999
0.999999
0.999999
0.999999
0.999999
0.999999
0.999999
0.999999
0.999999
0.999999
0.999998
0.999998
0.999999
0.999999
1
1
0.999998
1
1
1
1
0.999153
0.999999
0.99999
0.999984
0.999984
0.999985
0.999985
0.999985
0.999984
0.999983
0.99998
0.999977
0.999974
0.999971
0.999971
0.999987
0.999996
0.999996
0.999995
1
1
1
1
1
0.999977
0.999843
0.99979
0.999792
0.999801
0.999804
0.999799
0.999784
0.999756
0.999716
0.999663
0.999599
0.999545
0.999554
0.999637
0.999662
0.999872
0.999824
0.999851
1.00001
1
1
0.999997
0.999515
0.998025
0.9951
0.994589
0.994171
0.992662
0.989558
0.983772
0.972754
0.955055
0.927898
0.885646
0.824188
0.756049
0.713525
0.70588
0.716662
0.748836
0.810366
0.91626
0.999985
0.999997
0.999986
0.833219
0.642991
0.55262
0.536967
0.524949
0.50358
0.472853
0.425906
0.368565
0.30527
0.238022
0.166914
0.0995663
0.0527794
0.0351741
0.034701
0.038568
0.0575743
0.0894876
0.131354
0.209679
0.362585
0.581268
0.102987
0.0255169
-2.60442e-06
-4.42112e-07
-8.43118e-09
-2.99331e-11
-1.88136e-14
-1.32054e-17
-1.1252e-20
-2.19993e-23
0
-1.7187e-25
-1.31196e-10
-1.39312e-22
3.91279e-10
4.15478e-09
2.80664e-08
3.79917e-08
2.09505e-08
2.09505e-08
-8.0603e-07
2.53798e-05
0.0122799
-5.66809e-10
-5.931e-10
-5.76635e-08
-2.30653e-07
-2.96448e-07
-2.4875e-07
-1.68448e-07
-9.86298e-08
-5.27887e-08
-2.67012e-08
-1.21516e-08
-5.19598e-09
-2.05396e-09
-2.73599e-17
3.54674e-10
1.36469e-07
1.52021e-06
1.64012e-06
8.53012e-07
5.08165e-08
3.20248e-08
-1.50075e-06
-5.73617e-06
-8.22301e-10
-1.29133e-09
-1.49086e-07
-4.91076e-07
-5.33048e-07
-4.01887e-07
-2.52754e-07
-1.42524e-07
-7.48062e-08
-3.73109e-08
-1.67855e-08
-6.69693e-09
-2.44168e-09
-4.19652e-11
1.18567e-07
5.89474e-06
8.55228e-06
8.5458e-06
5.59576e-06
2.49121e-07
2.71126e-08
2.79242e-08
-3.21503e-07
-5.52376e-10
-9.82697e-10
-1.43218e-07
-4.09083e-07
-4.20623e-07
-3.08851e-07
-1.89724e-07
-1.04427e-07
-5.32411e-08
-2.56625e-08
-9.39463e-09
-2.07701e-09
-3.77305e-10
-1.45272e-10
6.76275e-06
8.55228e-06
8.55228e-06
8.55228e-06
5.68493e-06
2.21031e-07
5.61663e-09
1.68833e-09
-1.93474e-09
-1.66437e-10
-3.06695e-10
-6.63101e-08
-1.80945e-07
-1.81097e-07
-1.28938e-07
-7.64757e-08
-4.03591e-08
-1.92566e-08
-8.57811e-09
3.76114e-10
3.09244e-09
0
5.80441e-07
7.808e-06
8.43962e-06
7.21502e-06
1.34807e-06
1.28732e-09
4.86901e-10
4.95189e-10
5.54432e-10
1.05532e-09
-8.18979e-12
-6.14587e-12
-1.31882e-08
-3.73758e-08
-3.63264e-08
-2.47667e-08
-1.39747e-08
-6.68644e-09
-2.07935e-09
-5.48396e-10
1.23683e-08
2.48723e-08
9.77396e-10
1.31332e-07
1.07811e-06
5.77048e-07
-5.6131e-11
3.10018e-10
3.3228e-10
4.01779e-10
4.86234e-10
5.69568e-10
1.15447e-09
-1.03483e-13
-6.30998e-13
-6.07007e-12
-2.08121e-10
-4.31924e-10
-4.62166e-10
-3.23584e-10
0
1.71117e-09
6.18696e-10
1.28405e-08
2.54003e-08
1.92602e-08
4.09321e-10
3.3366e-10
3.11123e-10
2.90685e-10
3.03743e-10
3.24042e-10
4.22304e-10
4.65729e-10
5.3799e-10
2.54652e-09
-5.57591e-14
-4.42679e-13
-4.55098e-12
-8.66328e-11
-1.92863e-10
-1.87564e-10
-9.14963e-11
3.8806e-10
3.08593e-09
3.08837e-09
1.22726e-09
1.60962e-08
4.86718e-09
2.93258e-10
3.11701e-10
2.96924e-10
2.87507e-10
3.00617e-10
3.70596e-10
3.99862e-10
3.74215e-10
3.42274e-10
1.27409e-09
-2.78559e-14
-2.78188e-13
-2.85578e-12
-3.0367e-11
-7.18534e-11
-5.91069e-11
-3.2331e-12
6.17465e-10
2.65916e-09
3.1001e-09
1.20511e-09
6.71349e-11
6.22214e-11
2.91204e-10
3.87838e-10
3.77935e-10
2.79513e-10
2.04066e-10
1.4392e-10
1.40591e-10
1.70035e-10
2.59459e-10
1.13519e-09
-1.2659e-14
-1.47964e-13
-1.4119e-12
-9.39552e-12
-2.10751e-11
-1.26812e-11
1.37332e-11
4.28756e-10
1.30714e-09
1.94968e-09
1.22755e-09
1.06106e-10
6.07838e-11
1.93876e-10
3.06217e-10
1.46667e-10
5.67427e-11
4.57712e-11
4.96803e-11
6.62791e-11
1.13273e-10
2.5959e-10
2.10377e-09
-4.85058e-15
-5.98489e-14
-4.89997e-13
-2.3264e-12
-4.09513e-12
-1.1958e-12
8.90229e-12
1.35102e-10
5.72508e-10
9.9968e-10
7.22297e-10
7.75783e-11
2.61865e-11
3.88892e-11
6.27031e-11
1.98365e-11
1.28356e-11
1.31969e-11
1.84473e-11
3.99386e-11
9.7897e-11
3.0558e-10
2.09718e-09
-1.2434e-15
-1.38569e-14
-8.80147e-14
-2.85153e-13
-3.47257e-13
-1.50669e-18
9.47849e-13
3.83674e-11
1.86828e-10
3.63096e-10
1.06301e-10
1.57801e-11
2.26679e-12
3.89574e-12
4.07891e-12
3.33635e-12
2.39296e-12
2.82887e-12
8.3642e-12
3.09377e-11
9.17982e-11
2.38325e-10
1.8674e-09
-9.22702e-17
-5.59954e-16
-1.85649e-15
-2.90029e-15
0
4.24159e-18
2.10297e-13
7.03593e-12
2.77162e-11
4.1492e-11
1.21969e-11
3.11385e-12
5.49744e-13
4.43113e-13
5.43062e-13
4.05381e-13
3.11374e-13
7.9026e-13
5.33289e-12
2.59359e-11
8.16173e-11
2.36567e-10
1.2569e-09
-2.27608e-18
-2.12787e-17
-8.96451e-17
-1.93703e-16
-9.20119e-17
-1.02231e-16
3.99071e-14
5.31079e-13
9.4904e-13
5.97509e-13
1.75061e-12
5.53526e-13
1.40898e-13
2.59115e-14
3.46776e-14
3.13362e-14
4.00641e-14
3.47615e-13
3.46804e-12
1.96661e-11
6.86941e-11
2.22098e-10
1.13106e-09
-8.6563e-19
-8.94548e-18
-4.41953e-17
-1.27342e-16
-2.04634e-16
-4.04754e-17
3.59967e-16
7.64405e-16
2.5577e-16
2.29364e-14
1.05632e-13
5.28436e-14
2.349e-14
1.05069e-15
1.50433e-15
1.96209e-15
1.07192e-14
1.65106e-13
1.91539e-12
1.31572e-11
5.27932e-11
1.68411e-10
7.67924e-10
-1.73089e-19
-1.98055e-18
-1.12682e-17
-3.98924e-17
-9.29546e-17
-1.26855e-16
-4.46154e-17
1.05245e-16
1.87798e-16
1.59289e-16
4.12657e-17
1.21199e-17
2.49965e-17
4.14124e-17
5.40161e-17
2.66215e-16
4.27237e-15
6.7098e-14
8.99244e-13
7.70986e-12
3.56406e-11
1.10203e-10
5.424e-10
-2.61382e-22
-1.25037e-21
-1.17837e-21
-2.32621e-32
3.00077e-21
1.05838e-17
6.12652e-17
1.08018e-16
1.02087e-16
9.18119e-17
4.1977e-17
3.21499e-18
8.97185e-19
1.09512e-18
5.58592e-18
9.2683e-17
1.47926e-15
2.32593e-14
3.49442e-13
3.85306e-12
2.14028e-11
6.5821e-11
3.82952e-10
-2.37415e-25
-8.15339e-25
-5.657e-25
-1.45717e-33
-2.37142e-25
1.38048e-23
1.62695e-20
4.01e-19
1.15353e-18
2.40299e-19
4.65277e-20
3.28629e-20
2.91802e-20
9.89142e-20
1.58414e-18
2.75489e-17
4.47857e-16
7.21152e-15
1.14917e-13
1.54557e-12
1.06468e-11
3.81301e-11
2.74401e-10
-1.90529e-45
-6.18826e-41
-1.73982e-35
-8.10393e-29
-1.96699e-28
2.62983e-25
6.07206e-23
5.48788e-22
1.55162e-21
2.444e-21
2.77658e-21
2.20777e-21
3.3116e-21
2.27642e-20
4.13773e-19
7.35051e-18
1.22077e-16
1.94967e-15
3.07811e-14
4.6917e-13
4.12997e-12
2.13871e-11
2.01268e-10
9.34452e-40
8.45069e-38
-1.27341e-35
-8.89706e-33
4.76028e-31
3.08843e-29
9.21594e-26
8.77235e-24
4.92903e-23
1.01638e-22
1.2206e-22
9.39099e-23
3.84238e-22
5.74383e-21
1.07966e-19
1.92444e-18
3.24698e-17
5.28278e-16
8.08598e-15
1.17939e-13
1.32001e-12
1.11446e-11
1.25815e-10
-2.8806e-40
-1.0929e-37
-1.91746e-35
4.95304e-36
-1.25894e-32
-2.86106e-33
2.80888e-28
5.96108e-26
5.21981e-25
1.18655e-24
1.12335e-24
5.12352e-24
8.24386e-23
1.70431e-21
3.31115e-20
6.00347e-19
1.01516e-17
1.59441e-16
2.32132e-15
3.11673e-14
3.72754e-13
4.85305e-12
7.55839e-11
4.59072e-44
1.18996e-42
3.47434e-40
-5.72476e-37
-1.273e-35
7.09769e-34
4.55433e-32
1.56959e-29
8.71333e-28
3.41001e-27
3.16075e-26
6.83588e-25
1.61812e-23
3.54234e-22
7.16687e-21
1.34272e-19
2.3288e-18
3.7313e-17
5.50542e-16
7.40945e-15
8.48694e-14
2.55308e-12
3.56432e-11
2.06509e-45
2.88147e-44
6.1073e-42
1.8475e-40
2.3022e-37
2.79388e-35
1.70037e-33
7.79728e-32
3.06158e-30
1.06263e-28
3.22595e-27
8.85779e-26
2.21121e-24
5.05063e-23
1.05961e-21
2.0457e-20
3.63377e-19
5.92849e-18
8.86298e-17
1.21033e-15
1.3652e-14
5.18988e-13
7.47999e-12
-1.10814e-46
-1.05998e-43
-1.73801e-41
1.38097e-40
-2.96305e-39
1.76328e-36
1.12752e-34
5.5645e-33
2.33599e-31
8.54341e-30
2.76813e-28
8.04189e-27
2.114e-25
5.05965e-24
1.10675e-22
2.21567e-21
4.0607e-20
6.80446e-19
1.04007e-17
1.44529e-16
1.63844e-15
4.24144e-14
1.16124e-12
1.96573e-48
8.25618e-47
3.15186e-44
-4.04176e-41
-1.23503e-39
7.41516e-38
4.98323e-36
2.64151e-34
1.1886e-32
4.63891e-31
1.59909e-29
4.9278e-28
1.36851e-26
3.43987e-25
7.86218e-24
1.63909e-22
3.10687e-21
5.354e-20
8.34826e-19
1.14519e-17
1.28882e-16
3.47871e-15
1.15274e-13
2.82271e-50
1.67757e-48
6.51647e-46
1.44948e-43
2.09353e-41
2.18075e-39
1.55145e-37
8.81322e-36
4.25555e-34
1.77858e-32
6.51274e-31
2.1301e-29
6.27788e-28
1.66758e-26
3.92313e-25
8.35733e-24
1.61598e-22
2.83717e-21
4.52427e-20
6.55917e-19
7.85694e-18
2.45836e-16
9.44256e-15
-8.50568e-52
-9.16543e-49
-1.58145e-46
2.99498e-45
2.59893e-43
4.21637e-41
3.15133e-39
1.85169e-37
9.25773e-36
4.05174e-34
1.56873e-32
5.41915e-31
1.68416e-29
4.7286e-28
1.19999e-26
2.75675e-25
5.73929e-24
1.08374e-22
1.85784e-21
2.89506e-20
3.74273e-19
1.41012e-17
6.268e-16
1.75894e-54
2.87205e-52
1.51542e-49
-8.55667e-47
-1.73186e-45
4.38001e-43
3.318e-41
2.12897e-39
1.17892e-37
5.70949e-36
2.44184e-34
9.2885e-33
3.15895e-31
9.64137e-30
2.67862e-28
6.73549e-27
1.53245e-25
3.15916e-24
5.90963e-23
1.005e-21
1.42625e-20
6.4676e-19
3.34021e-17
6.24863e-57
1.66081e-54
9.53939e-52
1.8356e-49
2.4742e-47
2.533e-45
2.15783e-43
1.56118e-41
9.75523e-40
5.32836e-38
2.56667e-36
1.09768e-34
4.18697e-33
1.42961e-31
4.38263e-30
1.22745e-28
3.11119e-27
7.13595e-26
1.48408e-24
2.80537e-23
4.45566e-22
2.42944e-20
1.46901e-18
-9.15375e-59
-8.79309e-56
-1.64993e-53
4.8008e-52
5.82134e-50
7.74203e-48
7.83677e-46
6.51009e-44
4.68449e-42
2.96215e-40
1.65667e-38
8.21549e-37
3.60683e-35
1.41469e-33
4.97198e-32
1.56776e-30
4.53864e-29
1.18625e-27
2.80746e-26
6.03354e-25
1.09673e-23
7.56966e-22
5.4355e-20
1.28364e-62
8.76116e-60
2.48745e-57
-2.24915e-54
-1.54117e-52
9.79767e-51
1.13067e-48
1.13528e-46
9.97268e-45
7.70238e-43
5.25267e-41
3.17399e-39
1.70442e-37
8.15356e-36
3.40794e-34
1.27278e-32
4.29595e-31
1.32259e-29
3.67667e-28
9.26032e-27
1.98379e-25
1.88913e-23
1.6368e-21
5.8775e-66
2.52103e-63
3.32115e-61
1.86443e-59
1.43097e-56
2.38111e-54
3.81778e-52
5.28894e-50
6.36727e-48
6.69296e-46
6.14551e-44
4.9397e-42
3.48689e-40
2.16588e-38
1.18662e-36
5.55051e-35
2.30806e-33
8.77383e-32
3.00604e-30
9.2905e-29
2.45074e-27
3.60903e-25
3.79515e-23
-3.02801e-68
-1.33908e-65
-2.66538e-63
-1.49709e-62
-8.67733e-60
-1.03788e-57
-1.19888e-55
-1.46829e-53
-1.36819e-51
-7.9932e-50
9.47018e-49
9.80841e-46
1.54846e-43
1.60535e-41
1.3519e-39
9.5316e-38
5.3845e-36
2.71777e-34
1.24692e-32
5.12172e-31
1.79555e-29
5.06259e-27
6.43733e-25
-6.43387e-74
-8.99311e-72
-2.09102e-69
-8.93519e-66
-1.36544e-63
-6.00166e-62
-1.32665e-59
-2.55429e-57
-4.21976e-55
-5.91115e-53
-6.9332e-51
-6.64547e-49
-4.88211e-47
-2.15717e-45
2.79073e-44
2.01869e-41
2.455e-39
1.99889e-37
1.44907e-35
9.38842e-34
5.16856e-32
4.82495e-29
7.31583e-27
-7.02665e-80
-5.25726e-78
-2.34942e-75
-6.78877e-73
-1.86295e-70
-7.29046e-68
-2.57463e-65
-8.19587e-63
-2.27612e-60
-5.45164e-58
-1.12758e-55
-1.98077e-53
-2.91094e-51
-3.48081e-49
-3.13597e-47
-2.08939e-45
-2.04678e-44
9.76439e-43
2.48948e-40
4.66143e-38
7.28347e-36
2.76915e-31
4.34154e-29
-8.46342e-91
-8.49122e-89
-1.86715e-86
-6.97939e-85
-1.32037e-81
-9.43386e-79
-7.93264e-76
-7.25686e-73
-5.86583e-70
-4.12673e-67
-2.50653e-64
-1.30453e-61
-5.81657e-59
-2.20373e-56
-6.5865e-54
-1.38764e-51
-2.20245e-49
-7.80217e-49
-1.26538e-47
-1.0003e-45
-2.24738e-43
3.26731e-34
2.8887e-32
0.99247
0.995416
0.998819
0.621008
0.993031
0.995839
0.999734
0.989816
0.999427
0.999987
0.999893
0.999856
0.999986
0.99995
0.99991
0.999899
0.99995
0.99991
0.999907
0.999896
0.812457
0.997862
0.999937
0.999904
0.045162
0.098559
0.170819
0.262537
-2.53253e-05
5.40969e-05
0.000134774
0.000194206
-3.57153e-06
2.90641e-07
-1.60818e-05
-6.95599e-05
-2.94216e-08
-7.50828e-08
-3.43976e-07
-6.08204e-07
1.46925e-09
-1.81274e-09
-5.28553e-09
-1.32449e-08
2.06408e-09
2.36892e-09
2.27884e-09
2.31906e-09
2.9561e-09
2.82459e-09
1.84565e-09
5.33212e-09
2.3912e-09
1.89926e-09
1.35627e-09
1.56133e-09
1.14495e-09
1.16043e-09
1.18675e-09
1.35627e-09
1.52282e-09
1.16885e-09
1.35599e-09
2.95968e-09
1.73377e-09
1.35136e-09
2.51932e-09
9.26918e-07
1.60191e-09
1.70293e-09
9.4967e-09
5.48494e-06
1.26214e-09
3.83639e-08
5.93607e-07
6.77813e-07
1.07887e-09
1.4559e-07
4.34394e-07
3.63641e-07
8.91173e-10
4.04743e-08
1.47543e-07
2.81889e-07
7.36051e-10
1.42259e-08
1.67013e-07
5.77816e-07
5.55518e-10
1.86625e-08
1.07757e-07
2.83018e-07
1.14893e-09
1.38871e-08
6.50629e-08
2.03141e-07
1.02434e-09
9.80492e-09
4.51044e-08
1.455e-07
6.24596e-10
4.82304e-09
2.1584e-08
7.19112e-08
3.44943e-10
1.6759e-09
6.58805e-09
2.38993e-08
8.94381e-11
3.09697e-10
1.07458e-09
3.91325e-09
1.98868e-11
6.10797e-11
1.88562e-10
4.97457e-10
5.96796e-12
2.18691e-11
3.93751e-11
5.01977e-11
6.466e-13
4.11076e-12
6.18605e-12
5.35741e-12
5.46934e-14
4.1425e-13
6.49312e-13
5.37116e-13
3.70193e-15
3.29529e-14
5.59511e-14
4.41138e-14
2.0152e-16
2.09736e-15
3.9543e-15
2.98808e-15
9.11984e-18
1.11373e-16
2.40562e-16
1.85146e-16
3.45191e-19
5.09453e-18
1.28433e-17
1.01945e-17
1.05116e-20
1.94119e-19
5.82311e-19
4.82281e-19
2.41058e-22
5.72411e-21
2.1457e-20
1.92039e-20
3.87443e-24
1.17882e-22
6.16603e-22
6.28568e-22
3.89277e-26
1.64309e-24
1.29644e-23
1.59452e-23
1.63386e-28
1.25738e-26
1.7799e-25
2.94291e-25
8.58337e-35
1.74693e-29
4.98144e-28
-4.13646e-28
-2.99023e-06
-4.21356e-08
-1.22998e-07
1.54411e-08
8.45002e-08
4.35153e-08
9.57702e-09
1.55778e-09
1.81909e-10
1.57057e-11
4.93052e-13
1.19414e-14
2.37611e-16
5.23443e-18
1.62489e-19
1.88623e-21
1.9275e-23
1.04771e-25
1.10991e-27
0.80723
0.0821888
-1.66907e-05
2.50121e-07
1.52352e-06
7.35704e-07
1.29119e-07
2.12342e-08
2.50965e-09
2.16293e-10
1.32193e-11
4.93057e-13
1.19433e-14
2.37614e-16
2.29105e-17
2.68729e-19
1.82895e-21
1.88854e-23
1.02709e-25
0.998684
0.900165
0.387866
0.00115464
6.67651e-05
1.55336e-05
3.64906e-06
4.95567e-07
6.19341e-08
5.94136e-09
4.21651e-10
2.298e-11
6.39273e-13
4.50812e-14
1.8589e-15
1.79951e-17
2.53846e-19
2.77121e-21
2.05512e-23
0.999805
0.999038
0.981856
0.616435
0.0382083
0.000629937
6.48904e-05
1.39915e-05
1.5179e-06
1.45656e-07
1.11846e-08
6.35523e-10
2.7813e-11
8.55406e-13
4.10893e-14
1.12044e-15
2.37036e-17
2.30742e-19
2.65126e-21
0.999899
0.999782
0.998961
0.99578
0.630967
0.0537851
0.00165622
0.000173414
2.60386e-05
2.83078e-06
2.24318e-07
1.31145e-08
6.38578e-10
2.66344e-11
9.88874e-13
5.14563e-14
1.23865e-15
1.2995e-17
2.14832e-19
0.999768
0.999138
0.998653
0.998249
0.995463
0.498912
0.0258564
0.00201964
0.000254217
2.80842e-05
2.52216e-06
1.98108e-07
1.31753e-08
7.23315e-10
3.16113e-11
1.06323e-12
3.81952e-14
4.21755e-16
1.0918e-17
0.477319
0.964384
0.998253
0.995453
0.990998
0.915223
0.268827
0.00767739
0.00126775
0.000168525
1.88379e-05
1.77152e-06
1.39523e-07
8.99082e-09
4.55118e-10
1.72784e-11
5.38929e-13
6.19237e-15
3.75517e-16
0.00405755
0.0721035
0.373836
0.95533
0.985841
0.968422
0.616831
0.0619478
0.00336716
0.000535978
7.13298e-05
7.82449e-06
7.07075e-07
5.17355e-08
2.96066e-09
1.24921e-10
3.60838e-12
5.02975e-14
7.84181e-15
2.40868e-05
1.69823e-05
0.000721398
0.292874
0.91607
0.94871
0.822669
0.195113
0.00653828
0.00114711
0.000173986
2.15478e-05
2.17114e-06
1.75689e-07
1.10587e-08
5.10603e-10
1.5868e-11
2.45924e-13
7.38206e-14
-6.73146e-06
-8.0277e-06
4.37907e-05
0.000832442
0.551564
0.925034
0.864966
0.33651
0.0133006
0.00180141
0.000297763
4.02337e-05
4.40429e-06
3.85335e-07
2.61549e-08
1.30339e-09
4.36665e-11
7.20889e-13
3.88368e-13
-3.22345e-07
-8.72363e-08
3.69136e-06
4.41484e-05
0.20799
0.825446
0.812795
0.49672
0.036256
0.00242368
0.00041886
5.97068e-05
6.90292e-06
6.38128e-07
4.57531e-08
2.40655e-09
8.67613e-11
1.94976e-12
1.2736e-12
-2.82909e-09
2.29719e-08
2.63288e-07
-4.52208e-06
0.0382272
0.669917
0.792419
0.525746
0.0477026
0.00274464
0.000484875
7.11091e-05
8.48222e-06
8.10732e-07
6.03029e-08
3.3212e-09
1.30377e-10
4.41333e-12
2.93414e-12
4.51078e-08
1.22488e-07
1.23858e-07
5.1046e-07
2.19097e-05
0.520662
0.760116
0.488466
0.0459808
0.00260727
0.000466667
6.88812e-05
8.35687e-06
8.14409e-07
6.21863e-08
3.53012e-09
1.3921e-10
6.51702e-12
5.0511e-12
6.27881e-06
8.02257e-06
1.08447e-06
1.65977e-06
5.43447e-06
0.440541
0.708114
0.449417
0.0399574
0.00226371
0.000394403
5.70023e-05
6.85077e-06
6.73584e-07
5.21879e-08
3.02939e-09
1.20356e-10
5.20915e-12
3.5177e-12
9.10703e-06
1.43862e-05
7.58193e-06
5.10295e-06
0.0061138
0.439538
0.664409
0.403321
0.0297699
0.00182297
0.000296804
4.11679e-05
4.83146e-06
4.70672e-07
3.67503e-08
2.15409e-09
8.64711e-11
3.49768e-12
2.08589e-12
1.02963e-06
9.87352e-06
1.41557e-05
9.74916e-06
0.0206855
0.451144
0.605443
0.287733
0.013251
0.00123147
0.000189875
2.60131e-05
2.9111e-06
2.81985e-07
2.20997e-08
1.3186e-09
5.70008e-11
2.6326e-12
1.13086e-12
7.17079e-06
7.60031e-06
9.57917e-06
8.21451e-06
0.0404015
0.442336
0.332258
0.0828544
0.00760659
0.000663729
0.000101443
1.47075e-05
1.6266e-06
1.50942e-07
1.16861e-08
7.09161e-10
3.89784e-11
4.84849e-12
5.72858e-13
1.01154e-05
8.26712e-06
8.78676e-06
0.0115301
0.159427
0.240516
0.0470383
0.0068975
0.00306983
0.000460047
5.9614e-05
6.87054e-06
7.7992e-07
7.45578e-08
5.82141e-09
3.94933e-10
2.51806e-11
5.14283e-12
2.89897e-13
7.01862e-06
1.47262e-05
9.48877e-06
0.0588835
0.27138
0.275907
0.0406852
0.00277292
0.00065158
0.000129413
2.12093e-05
2.81804e-06
3.25614e-07
3.24157e-08
2.78335e-09
2.10217e-10
2.97529e-11
3.84377e-12
1.33881e-13
1.89508e-06
1.74751e-05
1.01225e-05
0.0166069
0.277382
0.27809
0.213061
0.0130181
0.000351967
3.96657e-05
7.56287e-06
1.04265e-06
1.25399e-07
1.25631e-08
1.10533e-09
1.06175e-10
2.81267e-11
2.131e-12
6.03321e-14
4.63628e-06
1.74762e-05
1.11614e-05
1.26227e-05
0.244333
0.27809
0.27809
0.0266514
0.000429004
5.00863e-05
5.06542e-06
6.02922e-07
6.32609e-08
5.93636e-09
4.7708e-10
4.72734e-11
1.69778e-11
1.01611e-12
2.69998e-14
1.70303e-06
3.25653e-06
3.27277e-05
3.06184e-05
0.0638116
0.27809
0.277418
0.223809
0.0153515
0.000217692
3.85075e-06
1.63796e-06
1.11756e-07
6.68762e-09
3.15856e-10
2.31199e-11
3.9978e-12
3.62162e-13
1.28421e-14
6.46014e-07
1.36211e-06
4.43653e-05
0.000111826
0.000305195
0.226635
0.276746
0.273324
0.0675982
0.000597015
5.88371e-05
3.40933e-06
2.83762e-07
1.31737e-08
4.9232e-10
1.3492e-11
6.67975e-13
1.32449e-13
6.18291e-15
6.85102e-07
2.03633e-06
8.71097e-06
9.15079e-05
0.000969901
0.0264808
0.230244
0.265451
0.137235
0.0016096
8.53327e-05
6.03406e-06
3.44859e-07
1.45731e-08
4.71334e-10
1.23446e-11
1.18528e-12
1.15748e-13
2.7821e-15
5.66793e-07
1.59763e-06
7.32149e-06
0.000109128
0.00125478
0.00159136
0.0406195
0.0936052
0.0906873
0.00868076
6.63308e-05
4.46788e-06
4.55596e-07
2.89732e-08
1.22161e-09
5.42001e-11
3.76879e-12
1.07833e-13
1.31129e-15
2.70372e-07
8.8401e-07
4.469e-06
2.37331e-05
0.000437617
0.00207099
0.00237439
0.00456566
0.00816781
0.00824212
0.000308508
2.17929e-05
1.28794e-06
6.22789e-08
2.34926e-09
8.63215e-11
3.8383e-12
7.00819e-14
5.73919e-16
8.67135e-08
3.96885e-07
2.26999e-06
1.22537e-05
0.000205741
0.000687872
0.000705549
0.00112469
0.00105474
0.00072297
0.000173231
1.09875e-05
6.92113e-07
3.28244e-08
1.37207e-09
5.15251e-11
1.37187e-12
2.18898e-14
1.69413e-16
1.43246e-08
8.45746e-08
4.99972e-07
2.47118e-06
2.04406e-05
0.000198641
0.000281862
0.000249163
0.000274338
3.68452e-05
1.39257e-06
5.59515e-08
-1.7852e-09
-1.09662e-11
2.08925e-11
9.59568e-12
2.9723e-13
5.14002e-15
4.37629e-17
1.79189e-09
1.12219e-08
6.66116e-08
3.52659e-07
3.26153e-06
3.7805e-05
5.76526e-05
5.01365e-05
6.2971e-05
1.0701e-05
4.57059e-07
3.7424e-09
3.2448e-10
-2.90369e-12
3.00507e-12
2.39643e-12
7.52762e-14
1.37136e-15
1.2182e-17
1.73594e-10
1.17731e-09
7.91876e-09
4.62594e-08
4.94761e-07
4.11608e-06
7.06961e-06
9.43998e-06
1.22875e-05
2.74842e-06
1.39716e-07
1.43475e-09
9.07734e-11
1.29844e-12
3.67536e-12
6.60968e-13
1.98896e-14
3.76202e-16
3.30455e-18
1.96695e-11
1.46177e-10
9.98314e-10
6.17226e-09
5.83412e-08
2.92395e-07
7.88584e-07
1.59924e-06
2.18335e-06
6.34418e-07
3.70401e-08
6.51356e-10
2.88591e-11
3.05991e-12
2.59231e-12
1.67872e-13
5.07532e-15
1.00005e-16
8.63441e-19
4.52717e-12
2.4792e-11
1.41528e-10
9.54363e-10
5.3923e-09
2.45402e-08
9.79647e-08
2.48284e-07
3.59764e-07
1.33959e-07
8.88678e-09
2.44631e-10
9.06958e-12
1.52167e-12
1.01609e-12
3.99934e-14
1.24786e-15
2.56666e-17
2.16784e-19
7.46528e-13
6.78059e-12
3.44193e-11
1.36226e-10
5.98948e-10
3.27162e-09
1.34838e-08
3.62058e-08
5.56215e-08
2.63643e-08
1.98118e-09
7.11579e-11
5.12175e-12
1.96295e-12
1.97681e-13
9.18823e-15
2.97005e-16
6.37051e-18
5.23832e-20
5.80657e-14
7.09723e-13
6.27801e-12
2.46093e-11
7.55688e-11
4.17565e-10
1.81732e-09
5.10858e-09
8.17842e-09
4.87536e-09
4.02462e-10
2.36201e-11
2.83708e-12
9.32196e-13
4.2197e-14
2.04866e-15
6.85264e-17
1.52918e-18
1.21971e-20
4.03544e-15
5.30638e-14
5.26308e-13
2.72465e-12
1.33514e-11
5.99623e-11
2.62458e-10
7.76528e-10
1.17907e-09
7.79118e-10
7.7993e-11
7.71685e-12
1.6306e-12
1.42864e-13
8.85385e-15
4.44004e-16
1.5339e-17
3.55073e-19
2.74136e-21
2.56693e-16
3.67605e-15
3.32188e-14
2.01402e-13
1.80642e-12
1.96748e-11
6.99159e-11
1.27723e-10
1.89784e-10
1.31218e-10
1.80138e-11
3.05575e-12
4.54266e-13
2.75608e-14
1.81262e-15
9.3682e-17
3.33551e-18
7.98384e-20
5.96116e-22
1.43974e-17
2.31797e-16
1.70631e-15
1.50797e-14
1.74617e-13
2.9577e-12
1.80273e-11
3.3095e-11
3.03923e-11
2.11969e-11
4.54577e-12
7.94175e-13
7.02893e-14
5.32782e-15
3.62581e-16
1.92831e-17
7.06011e-19
1.74154e-20
1.25778e-22
6.81153e-19
1.24663e-17
9.57831e-17
1.02332e-15
1.46523e-14
2.50444e-13
2.40755e-12
6.63195e-12
7.17759e-12
4.28787e-12
9.67914e-13
1.2751e-13
1.2749e-14
1.01038e-15
7.10369e-17
3.88209e-18
1.45831e-19
3.69459e-21
2.58357e-23
2.66947e-20
4.98741e-19
4.51487e-18
6.26282e-17
1.12861e-15
2.06577e-14
2.43243e-13
8.32349e-13
1.19001e-12
7.61734e-13
1.58651e-13
2.16363e-14
2.29138e-15
1.88369e-16
1.36721e-17
7.66718e-19
2.94844e-20
7.64577e-22
5.19145e-24
8.3112e-22
1.39044e-20
1.76106e-19
3.71183e-18
8.19773e-17
1.6587e-15
2.43828e-14
9.46112e-14
1.47727e-13
1.10814e-13
2.50941e-14
3.66527e-15
4.05948e-16
3.46314e-17
2.59303e-18
1.4903e-19
5.85414e-21
1.54859e-22
8.88091e-25
2.00525e-23
2.53041e-22
8.11695e-21
2.20437e-19
5.66788e-18
1.42407e-16
2.42572e-15
1.04101e-14
1.56613e-14
1.46047e-14
3.91023e-15
6.20535e-16
7.20227e-17
6.38548e-18
4.93391e-19
2.90377e-20
1.16283e-21
3.12681e-23
1.62944e-25
4.19178e-25
8.38643e-24
3.7139e-22
1.27524e-20
3.14711e-19
6.04339e-18
1.25545e-16
9.04752e-16
3.29266e-15
2.00603e-15
3.51114e-16
4.86252e-17
6.03573e-18
5.67828e-19
4.60978e-20
2.81956e-21
1.16707e-22
3.23016e-24
1.62944e-25
)
;

boundaryField
{
    leftWall
    {
        type            zeroGradient;
    }
    rightWall
    {
        type            zeroGradient;
    }
    lowerWall
    {
        type            zeroGradient;
    }
    atmosphere
    {
        type            inletOutlet;
        inletValue      uniform 0;
        value           nonuniform List<scalar> 
46
(
0
0
0
0
0
0
0
0
0
0
0
0
0
0
0
0
0
0
0
0
0
0
0
0
0
0
0
0
8.38643e-24
3.7139e-22
1.27524e-20
3.14711e-19
6.04339e-18
1.25545e-16
9.04752e-16
3.29266e-15
2.00603e-15
3.51114e-16
4.86252e-17
6.03573e-18
5.67828e-19
4.60978e-20
2.81956e-21
1.16707e-22
3.23016e-24
1.62944e-25
)
;
    }
    defaultFaces
    {
        type            empty;
    }
}


// ************************************************************************* //
