/*--------------------------------*- C++ -*----------------------------------*\
| =========                 |                                                 |
| \\      /  F ield         | OpenFOAM: The Open Source CFD Toolbox           |
|  \\    /   O peration     | Version:  v2012                                 |
|   \\  /    A nd           | Website:  www.openfoam.com                      |
|    \\/     M anipulation  |                                                 |
\*---------------------------------------------------------------------------*/
FoamFile
{
    version     2.0;
    format      ascii;
    class       surfaceScalarField;
    location    "0.3";
    object      alphaPhi0.water;
}
// * * * * * * * * * * * * * * * * * * * * * * * * * * * * * * * * * * * * * //

dimensions      [0 3 -1 0 0 0 0];
oriented        oriented;


internalField   nonuniform List<scalar> 
4432
(
-4.58706e-06
4.58706e-06
-3.36821e-06
-1.21886e-06
9.31784e-07
-4.29999e-06
6.1678e-06
-5.23602e-06
1.15464e-05
-5.37862e-06
1.67582e-05
-5.21178e-06
2.17582e-05
-5e-06
2.65807e-05
-4.82249e-06
3.12654e-05
-4.68471e-06
3.58292e-05
-4.56382e-06
4.02526e-05
-4.42336e-06
4.44683e-05
-4.21575e-06
4.8346e-05
-3.87769e-06
5.16594e-05
-3.3134e-06
5.40345e-05
-2.37505e-06
5.47262e-05
-6.91737e-07
5.24351e-05
2.29109e-06
4.58633e-05
6.5718e-06
3.41585e-05
1.17049e-05
1.77017e-05
1.64568e-05
-1.24517e-06
1.90033e-05
-1.24459e-05
1.18726e-05
-1.27799e-05
-1.80057e-06
6.38764e-06
5.97656e-07
-3.61709e-06
4.84099e-06
-8.54332e-06
9.88402e-06
-1.0279e-05
1.5077e-05
-1.05716e-05
2.01912e-05
-1.0326e-05
2.51613e-05
-9.97009e-06
2.99926e-05
-9.65386e-06
3.47029e-05
-9.39501e-06
3.9293e-05
-9.15393e-06
4.37331e-05
-8.86339e-06
4.79514e-05
-8.43408e-06
5.18204e-05
-7.74668e-06
5.51375e-05
-6.63045e-06
5.75994e-05
-4.83695e-06
5.88816e-05
-1.97394e-06
5.85968e-05
2.57587e-06
5.57883e-05
9.38031e-06
4.88781e-05
1.86151e-05
3.63654e-05
2.89695e-05
1.88636e-05
3.6505e-05
2.79414e-06
2.82987e-05
-1.01615e-05
4.09072e-07
5.97857e-06
3.24471e-06
-6.45272e-06
7.52732e-06
-1.28259e-05
1.2395e-05
-1.51467e-05
1.73987e-05
-1.55753e-05
2.23562e-05
-1.52835e-05
2.7211e-05
-1.48248e-05
3.19583e-05
-1.44012e-05
3.66024e-05
-1.40391e-05
4.11333e-05
-1.36849e-05
4.55149e-05
-1.3245e-05
4.96742e-05
-1.25934e-05
5.34897e-05
-1.15622e-05
5.67772e-05
-9.91797e-06
5.92714e-05
-7.33107e-06
6.06423e-05
-3.34487e-06
6.05405e-05
2.67768e-06
5.84849e-05
1.14359e-05
5.37231e-05
2.33768e-05
4.51149e-05
3.75778e-05
3.16246e-05
4.99953e-05
1.478e-05
4.51433e-05
3.99866e-06
1.81655e-06
4.16202e-06
5.20106e-06
-9.83724e-06
9.59793e-06
-1.72228e-05
1.43825e-05
-1.99313e-05
1.92406e-05
-2.04334e-05
2.40539e-05
-2.00968e-05
2.87881e-05
-1.95591e-05
3.34389e-05
-1.9052e-05
3.80035e-05
-1.86036e-05
4.24652e-05
-1.81466e-05
4.67837e-05
-1.75635e-05
5.08869e-05
-1.66966e-05
5.46609e-05
-1.53362e-05
5.79388e-05
-1.31958e-05
6.04892e-05
-9.88148e-06
6.20204e-05
-4.87611e-06
6.22143e-05
2.4838e-06
6.07251e-05
1.29251e-05
5.71196e-05
2.69823e-05
5.06336e-05
4.40637e-05
3.98469e-05
6.07821e-05
2.31526e-05
6.18468e-05
2.66252e-05
2.6019e-06
1.56012e-06
6.58335e-06
-1.38187e-05
1.11859e-05
-2.18253e-05
1.59587e-05
-2.47042e-05
2.07165e-05
-2.51912e-05
2.54109e-05
-2.47912e-05
3.00366e-05
-2.41848e-05
3.45957e-05
-2.36111e-05
3.9083e-05
-2.3091e-05
4.34781e-05
-2.25416e-05
4.77389e-05
-2.18243e-05
5.17958e-05
-2.07535e-05
5.55442e-05
-1.90846e-05
5.88359e-05
-1.64876e-05
6.14718e-05
-1.25173e-05
6.3203e-05
-6.60733e-06
6.37592e-05
1.92767e-06
6.28646e-05
1.38196e-05
6.01949e-05
2.96521e-05
5.51125e-05
4.91461e-05
4.60989e-05
6.97957e-05
2.97272e-05
7.82184e-05
5.58539e-05
3.06179e-06
-1.50168e-06
7.55042e-06
-1.83073e-05
1.23709e-05
-2.66458e-05
1.71633e-05
-2.94966e-05
2.18505e-05
-2.98784e-05
2.6449e-05
-2.93896e-05
3.0982e-05
-2.87178e-05
3.54597e-05
-2.80888e-05
3.98768e-05
-2.75081e-05
4.42112e-05
-2.6876e-05
4.84207e-05
-2.60339e-05
5.24399e-05
-2.47726e-05
5.61748e-05
-2.28195e-05
5.94977e-05
-1.98105e-05
6.22413e-05
-1.52609e-05
6.42004e-05
-8.56645e-06
6.51563e-05
9.71789e-07
6.48921e-05
1.40839e-05
6.31468e-05
3.13973e-05
5.93386e-05
5.29543e-05
5.19145e-05
7.72198e-05
3.61195e-05
9.40135e-05
9.18835e-05
3.38116e-06
-4.88285e-06
8.24094e-06
-2.31671e-05
1.32315e-05
-3.16363e-05
1.8037e-05
-3.43021e-05
2.26644e-05
-3.45058e-05
2.71821e-05
-3.39073e-05
3.16357e-05
-3.31714e-05
3.60421e-05
-3.24952e-05
4.03963e-05
-3.18622e-05
4.46751e-05
-3.11548e-05
4.88375e-05
-3.01963e-05
5.2823e-05
-2.87581e-05
5.65498e-05
-2.65463e-05
5.99117e-05
-2.31724e-05
6.27745e-05
-1.81238e-05
6.49772e-05
-1.07692e-05
6.63553e-05
-4.06255e-07
6.67571e-05
1.3682e-05
6.60044e-05
3.215e-05
6.36252e-05
5.53336e-05
5.82415e-05
8.26035e-05
4.38931e-05
0.000108362
0.000136735
3.63663e-06
-8.51949e-06
8.75042e-06
-2.82809e-05
1.38371e-05
-3.6723e-05
1.86268e-05
-3.90919e-05
2.31918e-05
-3.90708e-05
2.76366e-05
-3.8352e-05
3.20207e-05
-3.75556e-05
3.6364e-05
-3.68385e-05
4.0661e-05
-3.61592e-05
4.48879e-05
-3.53817e-05
4.90048e-05
-3.43133e-05
5.29565e-05
-3.27098e-05
5.66736e-05
-3.02634e-05
6.0073e-05
-2.65718e-05
6.30542e-05
-2.1105e-05
6.55008e-05
-1.32157e-05
6.73037e-05
-2.20922e-06
6.83893e-05
1.25964e-05
6.87039e-05
3.18354e-05
6.80235e-05
5.60139e-05
6.54409e-05
8.51862e-05
5.36232e-05
0.000120179
0.000190327
-4.59552e-23
5.93534e-23
-3.41297e-23
1.0596e-22
-1.79248e-24
1.0178e-23
-4.85471e-24
1.19862e-25
-7.97994e-24
-1.18839e-24
-2.98252e-24
-3.98762e-23
-3.50048e-25
-9.27477e-24
-9.96143e-27
-7.8932e-25
6.11146e-29
-2.16615e-26
1.12129e-29
-3.27957e-28
1.92358e-30
-1.26156e-29
4.20252e-32
-8.59782e-31
2.14111e-34
-4.16316e-33
5.2619e-37
1.60715e-36
6.98603e-39
3.80671e-38
5.67087e-41
7.57718e-40
3.12937e-43
9.14571e-42
8.34345e-44
5.71839e-44
3.46766e-46
-1.25298e-21
2.99021e-21
-2.08418e-21
4.57384e-21
-7.43253e-22
2.0334e-21
-5.06852e-22
5.82247e-23
-5.894e-22
-4.11181e-22
-2.99919e-22
-6.37324e-22
-4.1916e-23
-3.26498e-22
-1.6029e-24
-5.72496e-23
-4.7052e-27
-3.65805e-24
9.8868e-28
-8.0741e-26
2.31314e-28
-1.96048e-27
6.36424e-30
-1.48053e-28
3.64643e-32
-9.31972e-31
5.52026e-35
5.20308e-34
7.41714e-37
1.52149e-35
6.26628e-39
3.07355e-37
3.20538e-41
3.83355e-39
1.5431e-43
2.67789e-41
7.1569e-44
-9.49017e-20
1.35329e-19
-3.60783e-19
5.27091e-19
-4.21447e-19
4.72822e-19
-5.11325e-20
4.59878e-21
-4.14154e-20
-3.81562e-20
-1.86469e-20
-6.40927e-20
-2.50837e-21
-2.71755e-20
-1.07428e-22
-4.61495e-21
-6.40628e-25
-3.17405e-22
5.83857e-26
-8.41016e-24
1.57207e-26
-1.81514e-25
5.42477e-28
-1.30924e-26
3.50505e-30
-1.02556e-28
3.77843e-33
4.34109e-32
5.01497e-35
1.50768e-33
5.06402e-37
3.07106e-35
3.31902e-39
3.90013e-37
1.44402e-41
2.90397e-39
9.32189e-42
-2.79072e-18
4.16469e-18
-1.00898e-17
1.55334e-17
-9.52216e-18
1.18948e-17
-1.59977e-18
-5.0324e-19
-1.8146e-18
-1.30334e-18
-7.51217e-19
-2.99736e-18
-9.72485e-20
-1.30125e-18
-4.46543e-21
-2.43727e-19
-3.24726e-23
-1.69812e-20
2.86919e-24
-5.34484e-22
7.83116e-25
-1.13558e-23
3.35819e-26
-7.87285e-25
2.51131e-28
-7.64446e-27
2.15002e-31
2.6565e-30
3.25881e-33
1.09879e-31
3.70612e-35
2.29817e-33
2.63922e-37
3.00733e-35
1.27833e-39
2.37462e-37
8.6878e-40
-6.80661e-17
9.43955e-17
-1.36053e-16
1.50612e-16
-2.52608e-17
1.22895e-16
-4.91406e-17
-4.98263e-18
-5.4541e-17
-1.38197e-18
-2.11513e-17
-5.87395e-17
-2.70109e-18
-3.12543e-17
-1.30752e-19
-7.17194e-18
-7.88777e-22
-6.66405e-19
1.39627e-22
-2.46635e-20
3.19407e-23
-5.91495e-22
1.66548e-24
-3.61415e-23
1.50428e-26
-4.34874e-25
1.14678e-29
1.41239e-28
1.98468e-31
6.78623e-30
2.39665e-33
1.47672e-31
1.83354e-35
2.01111e-33
9.43514e-38
1.68234e-35
6.77907e-38
-6.23242e-16
7.19637e-16
-6.23622e-16
1.09586e-15
-3.57555e-16
3.49211e-16
-2.01618e-15
3.59273e-16
-1.55867e-15
-1.08002e-15
-4.47083e-16
-1.75753e-15
-5.44213e-17
-6.44055e-16
-2.78434e-18
-8.40221e-17
3.69581e-21
-1.78513e-17
6.17001e-21
-1.089e-18
1.10558e-21
-2.91636e-20
6.8459e-23
-1.32659e-21
7.63685e-25
-1.97883e-23
6.12767e-28
7.31636e-27
1.1364e-29
3.83185e-28
1.46193e-31
8.76517e-30
1.19937e-33
1.25622e-31
6.40497e-36
1.11614e-33
4.85964e-36
-4.00157e-16
1.77621e-15
-6.28843e-16
6.60672e-15
-6.15806e-15
5.65002e-15
-5.89145e-14
3.87876e-14
-3.89798e-14
-3.85272e-14
-8.5102e-15
-4.26161e-14
-9.43877e-16
-1.16698e-14
-4.35327e-17
-1.88212e-15
1.31379e-18
-2.31705e-16
2.48115e-19
-2.65197e-17
2.98674e-20
-9.14506e-19
2.34281e-21
-4.22171e-20
3.344e-23
-7.64897e-22
3.13807e-26
3.87117e-25
6.28374e-28
2.04734e-26
8.68363e-30
4.97522e-28
7.6676e-32
7.59137e-30
4.22814e-34
7.21022e-32
3.36634e-34
-2.02654e-14
2.23525e-14
-4.27347e-13
4.15446e-13
-3.27397e-13
-8.28534e-14
-1.38149e-12
8.37712e-13
-7.5839e-13
-1.12399e-12
-1.48488e-13
-8.50948e-13
-1.61555e-14
-2.04942e-13
-4.75255e-16
-2.89757e-14
1.02681e-16
-2.12671e-15
1.88832e-17
-4.99971e-17
1.83559e-18
5.26889e-18
8.47793e-20
6.36767e-20
1.27025e-21
-6.44021e-21
1.5755e-24
2.06615e-23
3.43566e-26
1.06211e-24
5.15299e-28
2.77147e-26
4.93648e-30
4.55998e-28
2.82456e-32
4.6761e-30
2.34758e-32
8.37325e-06
-1.68927e-05
1.98476e-05
-3.97552e-05
3.07165e-05
-4.75919e-05
4.07224e-05
-4.90977e-05
5.02132e-05
-4.85616e-05
5.94598e-05
-4.75987e-05
6.85989e-05
-4.66946e-05
7.76703e-05
-4.59099e-05
8.66566e-05
-4.51455e-05
9.55044e-05
-4.42295e-05
0.000104132
-4.29404e-05
0.000112436
-4.1014e-05
0.00012031
-3.81375e-05
0.000127653
-3.39151e-05
0.000134365
-2.78168e-05
0.00014034
-1.91902e-05
0.000145519
-7.38828e-06
0.000150014
8.10081e-06
0.000154222
2.76276e-05
0.000158878
5.13578e-05
0.000164957
7.91069e-05
0.000175524
0.000109613
0.000148632
0.000215644
9.40113e-06
-2.62939e-05
2.0982e-05
-5.1336e-05
3.14706e-05
-5.80803e-05
4.10175e-05
-5.86445e-05
5.01331e-05
-5.76771e-05
5.9109e-05
-5.65744e-05
6.80551e-05
-5.56407e-05
7.69816e-05
-5.48362e-05
8.58493e-05
-5.4013e-05
9.45915e-05
-5.29715e-05
0.000103119
-5.14677e-05
0.000111335
-4.92298e-05
0.000119172
-4.59743e-05
0.000126623
-4.13664e-05
0.000133729
-3.49227e-05
0.000140533
-2.5994e-05
0.000147134
-1.39892e-05
0.000153852
1.38329e-06
0.0001614
2.0079e-05
0.000171136
4.16226e-05
0.000185346
6.48961e-05
0.000206816
8.81437e-05
0.00011506
0.000239934
1.03199e-05
-3.66136e-05
2.17931e-05
-6.28079e-05
3.17446e-05
-6.80298e-05
4.07437e-05
-6.76417e-05
4.94358e-05
-6.63674e-05
5.81145e-05
-6.52515e-05
6.68512e-05
-6.43757e-05
7.56133e-05
-6.35963e-05
8.43313e-05
-6.27287e-05
9.29188e-05
-6.15562e-05
0.000101267
-5.98124e-05
0.00010926
-5.722e-05
0.000116845
-5.35569e-05
0.000124101
-4.86198e-05
0.000131202
-4.20226e-05
0.000138312
-3.31028e-05
0.000145578
-2.12559e-05
0.000153298
-6.33637e-06
0.0001621
1.12777e-05
0.000172953
3.07697e-05
0.000186944
5.09048e-05
0.000204728
7.03594e-05
8.91039e-05
0.000230684
1.09745e-05
-4.7584e-05
2.27463e-05
-7.45582e-05
3.2138e-05
-7.73956e-05
4.04071e-05
-7.5887e-05
4.85118e-05
-7.44516e-05
5.67444e-05
-7.34623e-05
6.51096e-05
-7.27143e-05
7.35036e-05
-7.19586e-05
8.18089e-05
-7.09969e-05
8.99109e-05
-6.96149e-05
9.76652e-05
-6.75176e-05
0.000104917
-6.442e-05
0.000111621
-6.02159e-05
0.000118025
-5.49993e-05
0.000124433
-4.84137e-05
0.00013142
-4.00708e-05
0.000138979
-2.88142e-05
0.000147285
-1.45767e-05
0.000156343
2.21484e-06
0.000167044
2.00681e-05
0.000180021
3.79273e-05
0.000196008
5.4372e-05
6.85389e-05
0.000216574
1.28558e-05
-6.0352e-05
2.49577e-05
-8.63829e-05
3.2529e-05
-8.28621e-05
3.93177e-05
-8.02038e-05
4.64689e-05
-7.88209e-05
5.39033e-05
-7.73366e-05
6.13984e-05
-7.52164e-05
6.859e-05
-7.15126e-05
7.50517e-05
-6.63054e-05
8.0387e-05
-5.95904e-05
8.38753e-05
-5.12601e-05
8.45468e-05
-4.12411e-05
8.25611e-05
-3.0687e-05
8.11297e-05
-2.22807e-05
8.37467e-05
-1.74811e-05
8.87072e-05
-1.43825e-05
9.65724e-05
-1.10968e-05
0.000109424
-7.63995e-06
0.000127551
-2.56198e-06
0.000148637
5.86657e-06
0.000166428
2.01362e-05
0.00018285
3.79504e-05
5.07771e-05
0.00020061
1.6748e-05
-3.81672e-05
1.74742e-05
-2.89373e-05
1.85999e-05
-1.70952e-05
2.13312e-05
-1.25248e-05
2.42473e-05
-9.26779e-06
2.65131e-05
-3.97806e-06
2.7654e-05
-2.38222e-07
2.69179e-05
-1.6267e-08
2.49315e-05
-1.22465e-09
2.17469e-05
-9.89876e-11
1.74397e-05
-7.87638e-12
1.23456e-05
-3.63202e-13
7.67587e-06
9.50125e-15
5.07279e-06
-6.29197e-13
4.67309e-06
-5.63478e-12
4.91657e-06
-3.47675e-11
5.86751e-06
-8.56286e-11
9.82342e-06
-5.37305e-11
1.60999e-05
-2.56428e-11
2.74235e-05
-2.49606e-14
5.21028e-05
3.82451e-07
9.6523e-05
1.03217e-06
4.92933e-06
0.000153243
4.77455e-06
7.13792e-14
1.42851e-06
5.56195e-14
6.33942e-07
4.77006e-12
5.52068e-07
2.12154e-11
4.92865e-07
2.82217e-11
2.55928e-07
2.38314e-11
1.76174e-08
1.61198e-11
1.34077e-09
9.34987e-12
1.11194e-10
4.91974e-12
9.77772e-12
2.42897e-12
8.36478e-13
1.06486e-12
4.11467e-14
4.32129e-13
-1.2634e-14
1.58876e-13
7.86512e-14
-5.71836e-14
7.79147e-13
-3.63462e-12
5.14134e-12
-2.50161e-11
1.49867e-11
-6.52233e-11
1.21039e-11
-4.96043e-11
6.57365e-12
-1.81007e-11
2.73821e-12
-2.35384e-12
3.82141e-07
-1.79721e-13
1.40653e-06
1.49033e-08
1.36177e-07
7.51144e-06
-2.04432e-14
1.33212e-13
-1.97209e-14
1.17461e-13
-2.02699e-12
1.26019e-11
-9.2713e-12
4.76479e-11
-1.40923e-11
5.4659e-11
-1.39615e-11
4.19548e-11
-1.10306e-11
2.65526e-11
-7.43016e-12
1.49148e-11
-4.53073e-12
7.75671e-12
-2.57594e-12
3.79129e-12
-1.30086e-12
1.64853e-12
-6.08893e-13
6.24816e-13
-2.60149e-13
2.11992e-13
3.24943e-13
-6.42276e-13
9.74125e-12
-1.26461e-11
9.62799e-11
-8.85911e-11
2.66281e-10
-3.49908e-10
2.36524e-10
-3.35707e-10
4.96806e-11
-8.26646e-11
2.79433e-11
-1.05481e-11
8.50427e-12
-2.94169e-12
1.44987e-08
2.08043e-11
3.26263e-09
1.47547e-07
1.29972e-14
8.39247e-14
-1.42076e-14
1.1009e-13
-4.62226e-12
1.49705e-11
-2.18363e-11
4.51994e-11
-3.01797e-11
4.82419e-11
-2.73394e-11
3.57664e-11
-1.98947e-11
2.19581e-11
-1.26907e-11
1.20069e-11
-7.40222e-12
6.04818e-12
-4.0533e-12
2.85616e-12
-1.98487e-12
1.01297e-12
-8.56624e-13
2.13855e-13
-3.36207e-13
3.64494e-14
4.77075e-12
-5.79405e-12
4.33726e-10
-2.86667e-10
1.13218e-09
-5.58733e-10
1.47926e-09
-5.19072e-10
1.64303e-09
-4.24723e-10
1.79854e-10
-2.26978e-10
4.86933e-11
-1.85747e-11
3.017e-11
-3.58526e-12
4.2895e-11
-4.69158e-13
4.48187e-11
3.23063e-09
9.7256e-15
2.36402e-14
-1.1127e-14
4.08665e-14
-4.60178e-12
8.31115e-12
-1.92467e-11
2.26918e-11
-2.47581e-11
2.29095e-11
-2.15033e-11
1.63194e-11
-1.51435e-11
9.63074e-12
-9.35775e-12
5.03563e-12
-5.27138e-12
2.36854e-12
-2.77452e-12
1.03283e-12
-1.09973e-12
-1.4311e-13
-2.61716e-13
-5.07599e-13
-5.10004e-14
-1.22342e-13
1.17848e-10
-1.23775e-10
1.08831e-09
-6.00364e-10
1.38695e-09
-6.79459e-10
1.52853e-09
-4.82747e-10
1.45189e-09
-1.6927e-10
1.67706e-10
-9.85565e-11
1.28043e-11
-6.54359e-12
9.98024e-12
-1.41863e-12
9.70106e-12
-3.38414e-13
-1.82646e-13
5.31602e-11
-5.0973e-16
1.18834e-15
-5.01364e-15
9.0057e-16
-2.08196e-12
1.85145e-12
-7.96731e-12
5.1594e-12
-9.89912e-12
4.9816e-12
-8.29714e-12
3.3746e-12
-5.62284e-12
1.88808e-12
-3.32236e-12
8.98477e-13
-1.74806e-12
2.73343e-13
-8.48745e-13
7.05069e-14
3.60052e-13
-1.22763e-12
8.37808e-13
-1.86772e-12
1.2968e-12
-5.81331e-13
6.95157e-10
-3.32911e-11
1.20516e-09
-5.74891e-10
1.00465e-09
-2.65259e-10
5.60527e-10
-8.19195e-11
1.05012e-10
-1.19424e-11
8.39589e-12
-1.82074e-12
1.98611e-12
-2.11584e-13
6.79308e-13
-7.8872e-14
4.41737e-13
-3.83676e-14
-5.62024e-14
5.12219e-13
-5.31466e-17
1.56869e-17
-1.03464e-16
9.89897e-17
-3.63944e-13
9.17487e-16
-1.40439e-12
3.08061e-14
-1.69256e-12
6.31267e-14
-1.36131e-12
6.68422e-14
-8.79002e-13
4.62857e-14
-4.74066e-13
-3.63839e-14
-1.61607e-13
-2.45781e-13
-4.64366e-14
-1.20882e-13
2.05839e-12
-1.68278e-12
3.2491e-12
-3.21379e-12
4.39798e-12
-2.05044e-12
4.77486e-11
-1.44593e-12
1.52965e-10
-2.20624e-13
9.59657e-11
-8.86383e-14
1.38936e-11
-6.18819e-14
2.00973e-12
-5.10376e-14
2.53481e-13
-4.56361e-14
1.15595e-13
-5.01693e-14
1.10682e-13
-4.15163e-14
1.5215e-13
-4.06405e-14
-1.4317e-13
4.26252e-13
-6.98476e-19
8.82883e-18
-8.89332e-18
7.26979e-17
-1.33196e-16
7.23598e-16
-6.16984e-15
1.34906e-14
-1.59536e-14
2.95935e-14
-2.02572e-14
2.84202e-14
-1.6302e-14
1.36869e-14
5.742e-15
-5.84279e-14
1.25179e-13
-3.92037e-13
2.66562e-13
-4.3071e-13
9.17553e-13
-3.08479e-13
2.01036e-12
-2.09249e-12
1.41075e-12
-1.42208e-12
1.87447e-13
-2.01272e-13
5.109e-14
-6.95429e-14
3.55183e-14
-5.78556e-14
3.61462e-14
-4.67849e-14
3.9659e-14
-3.9421e-14
4.77239e-14
-3.66288e-14
6.9878e-14
-4.1513e-14
9.17457e-14
-4.07828e-14
1.58307e-13
-3.76307e-14
-1.34103e-13
5.60685e-13
-3.21398e-19
4.57123e-18
-4.57954e-18
4.69591e-17
-7.20562e-17
4.69736e-16
-1.86504e-15
4.90175e-15
-5.22709e-15
1.1426e-14
-6.08797e-15
9.27259e-15
-3.43703e-15
5.00148e-16
4.41051e-14
-9.30788e-14
1.40117e-13
-4.37102e-13
1.8334e-13
-4.31168e-13
1.21669e-13
-2.20893e-13
8.72465e-13
-6.95395e-14
1.54594e-13
-1.76485e-14
2.90116e-14
-4.84946e-14
2.58011e-14
-4.70137e-14
2.51129e-14
-4.33925e-14
2.68219e-14
-3.27675e-14
3.20601e-14
-2.96143e-14
4.41356e-14
-2.38354e-14
5.16631e-14
-2.25849e-14
5.53035e-14
-2.47912e-14
7.18439e-14
-3.10579e-14
-1.3138e-13
3.94571e-13
-1.10212e-19
2.12747e-18
-1.80077e-18
2.53492e-17
-2.86757e-17
2.37277e-16
-4.23504e-16
1.55329e-15
-1.28513e-15
3.43434e-15
-1.28455e-15
2.03819e-15
-8.22121e-17
-2.19094e-15
3.6994e-14
-8.63747e-14
9.53463e-14
-3.01781e-13
1.00324e-13
-3.86781e-13
4.60571e-14
-1.80677e-13
5.44361e-15
-2.3404e-14
3.14861e-15
-1.05066e-14
1.49775e-14
-3.38822e-14
2.16816e-14
-3.71634e-14
2.23334e-14
-2.87477e-14
1.63747e-14
-1.20838e-14
1.39144e-14
-9.21876e-15
1.32266e-14
-9.23904e-15
1.53622e-14
-1.10299e-14
2.52265e-14
-1.6752e-14
5.55518e-14
-3.50987e-14
-2.88853e-13
2.03803e-13
-2.42074e-20
8.24461e-19
-4.38646e-19
1.03163e-17
-6.96753e-18
8.33117e-17
-6.81375e-17
3.89996e-16
-2.04224e-16
6.77315e-16
-1.53848e-16
1.95123e-16
7.03724e-16
-1.94727e-15
1.31781e-14
-3.49808e-14
3.35638e-14
-1.42701e-13
4.02378e-14
-2.31299e-13
1.67846e-14
-1.5308e-13
1.64829e-15
-1.45707e-14
1.87151e-15
-5.82347e-15
8.60979e-15
-9.64553e-15
1.14609e-14
-1.53505e-14
4.08432e-15
-4.76523e-15
2.52154e-15
-2.88572e-15
2.8776e-15
-2.83688e-15
3.85899e-15
-3.56134e-15
6.81382e-15
-6.56465e-15
1.6216e-14
-1.51647e-14
3.96589e-14
-4.76355e-14
-3.38461e-13
2.93342e-13
8.15159e-22
2.11326e-19
-1.85807e-21
2.38917e-18
-3.13397e-19
1.50182e-17
-3.66687e-18
4.807e-17
-1.10009e-17
5.78203e-17
-4.63099e-18
-7.72355e-19
1.02316e-16
-2.89896e-16
1.61005e-15
-1.05196e-14
6.31979e-15
-5.13927e-14
9.06969e-15
-9.84717e-14
5.60518e-15
-3.24905e-14
3.84277e-16
-3.98814e-15
4.20685e-16
-5.75072e-16
9.24758e-16
-1.03703e-15
1.50733e-15
-1.09969e-15
4.07838e-16
-8.2331e-16
4.67921e-16
-5.82886e-16
5.94985e-16
-6.46145e-16
1.21554e-15
-1.55163e-15
3.60987e-15
-5.13926e-15
1.19116e-14
-1.52429e-14
3.67874e-14
-4.17991e-14
-3.49765e-13
2.5349e-13
1.76745e-20
1.55644e-20
2.02569e-19
9.59712e-20
8.11085e-19
3.15772e-19
1.06653e-18
4.88261e-19
-1.3906e-20
-2.19286e-21
-1.68193e-19
-6.18635e-19
-2.45773e-17
-6.68758e-17
-2.73692e-16
-2.12332e-15
-7.81196e-16
-8.78063e-15
-2.60759e-16
-1.38714e-14
-1.15901e-17
-3.62327e-15
4.43751e-18
-8.04707e-16
7.45857e-18
-1.30375e-16
2.55115e-17
-1.21172e-16
4.14151e-17
-1.45018e-16
4.3384e-17
-1.07729e-16
4.97368e-17
-8.1101e-17
8.83859e-17
-1.6989e-16
4.45483e-16
-9.78236e-16
2.05446e-15
-4.52895e-15
7.47783e-15
-1.46319e-14
2.87722e-14
-4.3078e-14
-2.78891e-13
1.80322e-13
1.2383e-21
3.78902e-22
7.58606e-21
3.60709e-21
1.61295e-20
1.51156e-20
-5.7148e-23
3.23821e-20
-1.74798e-20
1.52298e-20
-4.77982e-19
-1.50923e-19
-1.86161e-17
-1.30516e-17
-1.99029e-16
-1.74755e-16
-4.42128e-16
-3.27212e-16
-2.01774e-16
-2.31721e-16
-5.10726e-17
-5.06129e-16
-5.73824e-18
-1.50658e-16
-3.31487e-18
-3.49914e-17
-2.78964e-18
-7.47596e-18
-9.33702e-19
-9.89173e-18
6.61186e-19
-8.82761e-18
2.04255e-18
-1.01578e-17
1.41544e-17
-7.20894e-17
1.54464e-16
-6.68889e-16
9.38787e-16
-3.72001e-15
3.65389e-15
-1.30725e-14
1.43389e-14
-4.30802e-14
-2.50516e-13
1.1768e-13
6.04512e-23
1.41643e-22
4.82272e-22
1.49369e-21
1.4675e-21
7.35494e-21
8.74222e-22
2.10431e-20
-6.74542e-21
3.35202e-20
-1.97189e-19
6.56196e-21
-4.60146e-18
-1.32166e-19
-1.55798e-17
-2.52395e-19
-1.05128e-17
-1.79245e-19
-3.08889e-17
-7.42702e-18
-1.52969e-17
-3.2762e-17
-3.9833e-18
-1.57832e-17
-4.28854e-19
-6.63482e-18
-5.16897e-19
-3.10304e-19
-3.96664e-19
-4.43659e-19
-3.10398e-19
-5.71332e-19
-4.40919e-19
-2.74287e-18
-2.37013e-18
-3.76927e-17
4.17234e-18
-4.13347e-16
1.21728e-16
-2.70656e-15
6.85441e-16
-1.07819e-14
3.08066e-15
-3.66345e-14
-1.9201e-13
2.92393e-14
2.88739e-23
2.77639e-23
2.75896e-22
3.24736e-22
1.14288e-21
1.84445e-21
2.34743e-21
6.49257e-21
5.57358e-22
1.50128e-20
-7.08063e-21
2.02976e-20
-1.46508e-20
7.07024e-21
-1.02241e-20
-1.6446e-20
-1.60672e-19
-3.77934e-20
-2.47375e-18
-3.49189e-20
-1.72935e-18
-6.66785e-21
-8.79445e-19
-3.35743e-21
-2.5287e-20
-7.64658e-21
-2.91581e-20
-1.24411e-20
-3.37364e-20
-1.69905e-20
-5.40717e-20
-8.62717e-20
-4.76178e-19
-1.21806e-18
-6.81466e-18
-1.80345e-17
-6.44436e-17
-2.20259e-16
-3.18863e-16
-1.7292e-15
-9.69406e-16
-7.86006e-15
-6.48266e-15
-2.68332e-14
-1.63303e-13
8.55557e-15
6.78601e-24
4.10307e-26
7.60344e-23
2.00861e-25
3.93079e-22
1.89224e-25
1.18656e-21
-4.9126e-25
1.96628e-21
-3.24844e-23
8.0687e-22
-1.73493e-21
-2.14984e-21
-9.51028e-21
-4.26561e-21
-1.66562e-20
-4.47682e-21
-2.30712e-20
-1.69091e-21
-2.01233e-20
-3.49069e-22
-6.25951e-21
-5.27748e-22
-8.63536e-22
-9.9569e-22
-2.71563e-22
-1.28899e-21
-3.7501e-22
-2.31241e-21
-2.29706e-21
-2.05275e-20
-3.36293e-20
-3.24924e-19
-5.16457e-19
-5.21035e-18
-7.57727e-18
-6.63834e-17
-1.00076e-16
-4.46954e-16
-9.5928e-16
-1.53659e-15
-5.27768e-15
-7.21001e-15
-2.14535e-14
-1.58154e-13
1.65725e-14
4.35378e-27
3.64417e-29
8.21077e-27
1.28135e-28
-3.1683e-26
8.89508e-29
-5.22893e-25
-4.95944e-29
-3.31769e-23
-1.83399e-27
-7.13278e-22
-8.84483e-26
-2.36844e-21
-6.4309e-24
-2.65361e-21
-1.30417e-22
-2.78564e-21
-3.66572e-22
-1.85706e-21
-7.59027e-23
-1.73353e-22
-1.40873e-23
-3.0745e-23
-9.85772e-24
-3.24598e-23
-9.83314e-24
-6.39711e-23
-5.22004e-23
-6.66918e-22
-7.93806e-22
-1.07844e-20
-1.30413e-20
-1.70795e-19
-2.02796e-19
-2.77309e-18
-3.01075e-18
-4.21928e-17
-4.1421e-17
-3.81609e-16
-4.66695e-16
-1.55364e-15
-3.37236e-15
-4.65384e-15
-1.86194e-14
-1.5737e-13
2.31105e-14
2.8002e-30
-2.56426e-38
3.94353e-30
-6.94947e-36
-1.9299e-30
-9.03056e-34
-5.13994e-29
-1.24925e-31
-1.96261e-27
-5.71652e-30
-9.02513e-26
-3.16268e-28
-3.69848e-24
-2.09247e-26
-3.18027e-23
-1.7525e-25
-1.218e-23
-4.8136e-25
-1.92748e-24
-7.40991e-25
-1.20981e-24
-8.12593e-25
-1.14889e-24
-6.73743e-25
-1.74143e-24
-1.56879e-24
-1.65421e-23
-1.75455e-23
-2.90619e-22
-3.06258e-22
-4.93613e-21
-5.15942e-21
-8.06799e-20
-8.19742e-20
-1.3045e-18
-1.22865e-18
-2.0795e-17
-1.72154e-17
-2.49169e-16
-2.15262e-16
-1.42329e-15
-2.09626e-15
-2.34478e-15
-1.52363e-14
-1.39659e-13
2.02841e-14
-2.54523e-38
-1.90337e-40
-6.9211e-36
-5.38191e-38
-9.02737e-34
-7.25113e-36
-1.59303e-31
-4.65009e-34
-7.71651e-30
-2.63851e-32
-2.53787e-28
-1.1319e-30
-5.68687e-27
-6.16007e-29
-3.06057e-26
-2.80829e-27
-6.85028e-26
-1.49672e-26
-9.39894e-26
-3.02404e-26
-8.60178e-26
-3.69814e-26
-9.98289e-26
-4.44588e-26
-4.27684e-25
-4.3157e-25
-6.87847e-24
-7.59397e-24
-1.2892e-22
-1.38155e-22
-2.29135e-21
-2.37941e-21
-3.85959e-20
-3.8593e-20
-6.22206e-19
-5.87328e-19
-9.68868e-18
-8.27191e-18
-1.46199e-16
-1.06122e-16
-1.16564e-15
-1.19191e-15
-2.30342e-15
-1.09416e-14
-1.01388e-13
-1.40807e-14
-1.89157e-40
-4.23676e-43
-5.38052e-38
-1.61308e-40
-7.28867e-36
-2.85794e-38
-4.75373e-34
-2.51512e-36
-2.65128e-32
-1.46828e-34
-1.1463e-30
-6.63709e-33
-4.51878e-29
-3.28646e-31
-7.55271e-28
-1.94573e-29
-2.66394e-27
-1.56615e-28
-3.9248e-27
-3.70641e-28
-4.10886e-27
-6.61503e-28
-1.03945e-26
-8.52115e-27
-1.66414e-25
-1.6696e-25
-3.28282e-24
-3.31784e-24
-6.41589e-23
-6.21427e-23
-1.18252e-21
-1.08829e-21
-2.0602e-20
-1.77659e-20
-3.37044e-19
-2.68825e-19
-5.15971e-18
-3.73857e-18
-7.44399e-17
-4.73187e-17
-8.18295e-16
-5.38446e-16
-5.9338e-15
-5.38021e-15
-5.04939e-14
-5.20964e-14
-6.52247e-43
-4.19055e-46
-2.35926e-40
-1.265e-43
-3.98209e-38
-1.85179e-41
-2.55027e-36
-1.66592e-39
-1.52939e-34
-1.09435e-37
-6.80122e-33
-5.5171e-36
-2.75119e-31
-2.52456e-34
-6.67524e-30
-1.08436e-32
-2.88591e-29
-3.74774e-31
-3.85109e-29
-4.11414e-30
-1.5806e-28
-8.7656e-29
-5.46848e-27
-2.04477e-27
-1.14773e-25
-4.554e-26
-2.29493e-24
-9.41133e-25
-4.35278e-23
-1.80231e-23
-7.76315e-22
-3.19685e-22
-1.29658e-20
-5.23743e-21
-2.01645e-19
-7.88603e-20
-2.892e-18
-1.08402e-18
-3.78757e-17
-1.34942e-17
-4.49203e-16
-1.51272e-16
-4.38877e-15
-1.54918e-15
-1.50915e-14
-4.14596e-14
-3.80449e-46
-1.47301e-47
-1.20871e-43
-4.98081e-45
-1.75955e-41
-7.70217e-43
-1.94167e-39
-6.81612e-41
-1.25056e-37
-4.73892e-39
-5.20106e-36
-2.34168e-37
-2.35032e-34
-1.11424e-35
-5.85505e-33
-4.49636e-34
-5.69249e-32
-1.5732e-32
-2.28969e-30
-4.78317e-31
-7.18663e-29
-1.32468e-29
-1.74347e-27
-3.34863e-28
-3.92139e-26
-7.7402e-27
-8.19452e-25
-1.64201e-25
-1.59059e-23
-3.20325e-24
-2.86659e-22
-5.74472e-23
-4.78391e-21
-9.44876e-22
-7.35756e-20
-1.41936e-20
-1.03622e-18
-1.93638e-19
-1.32742e-17
-2.3829e-18
-1.52388e-16
-2.62932e-17
-1.76981e-15
-2.63379e-16
-2.94047e-15
-2.05985e-14
-1.34308e-47
-6.0126e-49
-4.73251e-45
-2.48007e-46
-7.27778e-43
-4.43743e-44
-6.42841e-41
-4.55293e-42
-4.39428e-39
-3.35355e-40
-2.16756e-37
-1.80309e-38
-1.02612e-35
-9.10407e-37
-4.15122e-34
-3.89157e-35
-1.45517e-32
-1.44315e-33
-4.43535e-31
-4.72413e-32
-1.23781e-29
-1.38273e-30
-3.15368e-28
-3.65317e-29
-7.35546e-27
-8.76965e-28
-1.57684e-25
-1.9207e-26
-3.11376e-24
-3.84519e-25
-5.66315e-23
-7.03555e-24
-9.46662e-22
-1.17432e-22
-1.44902e-20
-1.782e-21
-2.02076e-19
-2.44703e-20
-2.55279e-18
-3.02356e-19
-2.8767e-17
-3.34039e-18
-4.37495e-16
-3.30999e-17
-3.88449e-16
-4.49258e-15
-6.50813e-49
-2.16364e-50
-2.66164e-46
-8.92099e-48
-4.61235e-44
-1.59176e-45
-4.38421e-42
-1.86231e-43
-3.22679e-40
-1.47921e-41
-1.74194e-38
-8.91726e-40
-8.80516e-37
-4.80327e-38
-3.78214e-35
-2.18601e-36
-1.41078e-33
-8.60657e-35
-4.64925e-32
-2.98092e-33
-1.37122e-30
-9.19582e-32
-3.65417e-29
-2.54937e-30
-8.858e-28
-6.39087e-29
-1.96154e-26
-1.45429e-27
-3.97627e-25
-3.01007e-26
-7.38028e-24
-5.66743e-25
-1.25238e-22
-9.69244e-24
-1.93756e-21
-1.50174e-22
-2.72271e-20
-2.10111e-21
-3.46146e-19
-2.63585e-20
-3.91515e-18
-2.95355e-19
-4.81126e-17
-2.95725e-18
-3.5585e-17
-7.50446e-16
-2.10425e-50
-5.03611e-52
-8.69365e-48
-2.34024e-49
-1.55157e-45
-4.50108e-47
-1.80315e-43
-5.12816e-45
-1.47015e-41
-4.52626e-43
-8.80587e-40
-3.02414e-41
-4.76223e-38
-1.74775e-39
-2.18012e-36
-8.52475e-38
-8.6399e-35
-3.58969e-36
-3.01469e-33
-1.32616e-34
-9.37605e-32
-4.3493e-33
-2.62272e-30
-1.27737e-31
-6.64072e-29
-3.37936e-30
-1.52858e-27
-8.08359e-29
-3.205e-26
-1.75008e-27
-6.12358e-25
-3.43321e-26
-1.06588e-23
-6.09781e-25
-1.6898e-22
-9.7864e-24
-2.4252e-21
-1.41498e-22
-3.10897e-20
-1.8353e-21
-3.52224e-19
-2.12471e-20
-4.3159e-18
-2.18981e-19
-2.72837e-18
-7.57449e-17
-4.98102e-52
-7.06638e-54
-2.3073e-49
-3.71868e-51
-4.44396e-47
-7.90461e-49
-5.0832e-45
-9.95309e-47
-4.49782e-43
-9.4734e-45
-3.03103e-41
-6.88582e-43
-1.76167e-39
-4.30313e-41
-8.65307e-38
-2.26784e-39
-3.67088e-36
-1.03044e-37
-1.36737e-34
-4.09993e-36
-4.52764e-33
-1.44443e-34
-1.34361e-31
-4.5421e-33
-3.59618e-30
-1.28197e-31
-8.71103e-29
-3.25952e-30
-1.90615e-27
-7.48046e-29
-3.78202e-26
-1.55063e-27
-6.80294e-25
-2.90208e-26
-1.10767e-23
-4.89698e-25
-1.62879e-22
-7.43264e-24
-2.1564e-21
-1.01114e-22
-2.52984e-20
-1.227e-21
-3.24628e-19
-1.3213e-20
-1.726e-19
-6.32432e-18
-7.01086e-54
-6.6866e-56
-3.52499e-51
-3.6235e-53
-7.51461e-49
-8.2578e-51
-9.94466e-47
-1.22215e-48
-9.46813e-45
-1.25947e-46
-6.97852e-43
-1.0106e-44
-4.39522e-41
-6.88729e-43
-2.33012e-39
-3.96425e-41
-1.06458e-37
-1.96638e-39
-4.26076e-36
-8.52618e-38
-1.51062e-34
-3.26523e-36
-4.78309e-33
-1.11282e-34
-1.36056e-31
-3.39381e-33
-3.48859e-30
-9.29367e-32
-8.08186e-29
-2.29016e-30
-1.69314e-27
-5.08301e-29
-3.2073e-26
-1.01611e-27
-5.48828e-25
-1.82785e-26
-8.46947e-24
-2.95358e-25
-1.1758e-22
-4.27416e-24
-1.44835e-21
-5.51394e-23
-1.98106e-20
-6.29677e-22
-8.72952e-21
-4.31449e-19
-6.68399e-56
-4.05486e-58
-3.61032e-53
-2.4292e-55
-8.26241e-51
-5.94525e-53
-1.19115e-48
-9.03581e-51
-1.25797e-46
-1.03873e-48
-1.0277e-44
-9.37405e-47
-7.03009e-43
-7.05578e-45
-4.0638e-41
-4.49482e-43
-2.0251e-39
-2.46788e-41
-8.82489e-38
-1.18302e-39
-3.39814e-36
-4.99816e-38
-1.16505e-34
-1.87415e-36
-3.57643e-33
-6.26936e-35
-9.86474e-32
-1.87714e-33
-2.4517e-30
-5.04508e-32
-5.49514e-29
-1.21821e-30
-1.11102e-27
-2.64329e-29
-2.02538e-26
-5.15164e-28
-3.32543e-25
-9.00653e-27
-4.90812e-24
-1.4089e-25
-6.4356e-23
-1.96346e-24
-9.49618e-22
-2.41802e-23
-3.60946e-22
-2.3334e-20
-4.05689e-58
-1.42524e-60
-2.42713e-55
-9.65803e-58
-5.96921e-53
-2.53699e-55
-9.11195e-51
-4.20353e-53
-1.05083e-48
-5.32694e-51
-9.51452e-47
-5.36144e-49
-7.18439e-45
-4.53032e-47
-4.5932e-43
-3.25144e-45
-2.53177e-41
-2.0132e-43
-1.21887e-39
-1.08751e-41
-5.17413e-38
-5.1682e-40
-1.95039e-36
-2.1744e-38
-6.56271e-35
-8.13787e-37
-1.97792e-33
-2.71779e-35
-5.35533e-32
-8.12241e-34
-1.30485e-30
-2.17622e-32
-2.86163e-29
-5.22789e-31
-5.64839e-28
-1.1258e-29
-1.00285e-26
-2.17132e-28
-1.59932e-25
-3.74282e-27
-2.26807e-24
-5.74253e-26
-3.6525e-23
-7.7729e-25
-1.27172e-23
-1.02191e-21
-1.39388e-60
-2.61429e-63
-9.30671e-58
-1.97715e-60
-2.47413e-55
-5.52918e-58
-4.23513e-53
-1.03441e-55
-5.37874e-51
-1.46431e-53
-5.43033e-49
-1.67778e-51
-4.60103e-47
-1.62829e-49
-3.31164e-45
-1.34897e-47
-2.05688e-43
-9.65816e-46
-1.11502e-41
-6.03105e-44
-5.32018e-40
-3.30801e-42
-2.24847e-38
-1.60253e-40
-8.45662e-37
-6.88541e-39
-2.84071e-35
-2.63228e-37
-8.54642e-34
-8.97731e-36
-2.3073e-32
-2.73618e-34
-5.5965e-31
-7.46205e-33
-1.21931e-29
-1.81988e-31
-2.38574e-28
-3.96679e-30
-4.18814e-27
-7.71405e-29
-6.54221e-26
-1.3332e-27
-1.17104e-24
-2.02873e-26
-3.7167e-25
-3.78085e-23
-2.61672e-63
-2.77726e-66
-1.98114e-60
-1.8782e-63
-5.5531e-58
-5.29637e-61
-1.02956e-55
-1.05996e-58
-1.46673e-53
-1.71556e-56
-1.69446e-51
-2.31629e-54
-1.64759e-49
-2.66672e-52
-1.36788e-47