/*--------------------------------*- C++ -*----------------------------------*\
| =========                 |                                                 |
| \\      /  F ield         | OpenFOAM: The Open Source CFD Toolbox           |
|  \\    /   O peration     | Version:  v2012                                 |
|   \\  /    A nd           | Website:  www.openfoam.com                      |
|    \\/     M anipulation  |                                                 |
\*---------------------------------------------------------------------------*/
FoamFile
{
    version     2.0;
    format      ascii;
    class       volScalarField;
    location    "0.3";
    object      epsilon;
}
// * * * * * * * * * * * * * * * * * * * * * * * * * * * * * * * * * * * * * //

dimensions      [0 2 -3 0 0 0 0];


internalField   nonuniform List<scalar> 
2268
(
0.0477137
0.160009
0.309116
0.452808
0.5825
0.709158
0.838163
0.972308
1.11176
1.25421
1.39507
1.52761
1.64324
1.73181
1.78193
1.77824
1.72926
1.63911
1.5025
1.32846
1.13252
0.88062
0.603124
0.0579396
0.107323
0.168908
0.222446
0.270023
0.315221
0.360521
0.407296
0.45586
0.505638
0.555304
0.602929
0.646183
0.682707
0.710735
0.730167
0.755552
0.795962
0.859873
0.959237
1.08254
1.01126
0.787671
0.0773821
0.11174
0.154428
0.191095
0.222919
0.252392
0.281468
0.311253
0.342063
0.373585
0.405021
0.435232
0.462949
0.487145
0.507663
0.526491
0.55201
0.595537
0.671853
0.802176
0.993599
1.09085
1.38842
0.0973388
0.122464
0.155751
0.184235
0.208906
0.23172
0.254214
0.27724
0.301025
0.3253
0.34944
0.372602
0.393943
0.412983
0.430229
0.448306
0.474218
0.519069
0.597993
0.731701
0.934211
1.1559
2.04104
0.114075
0.133953
0.160488
0.183132
0.203131
0.222029
0.240935
0.260415
0.280553
0.301062
0.321394
0.340879
0.358933
0.375417
0.391237
0.40935
0.436378
0.483221
0.565061
0.702105
0.91266
1.2377
2.63235
0.127216
0.143565
0.164857
0.182963
0.199551
0.215844
0.232544
0.24993
0.267934
0.28623
0.304319
0.321659
0.337861
0.353045
0.368398
0.387096
0.415636
0.464825
0.550277
0.693633
0.921284
1.35131
3.26256
0.136634
0.150297
0.167333
0.181961
0.196087
0.210626
0.225928
0.242016
0.258691
0.275592
0.292261
0.308265
0.323387
0.337955
0.353373
0.372959
0.403145
0.454684
0.543847
0.695225
0.94913
1.49914
3.98503
0.143516
0.154241
0.167534
0.179551
0.19199
0.205407
0.219839
0.23511
0.250921
0.266888
0.282601
0.297727
0.312206
0.326545
0.342315
0.362919
0.394702
0.448263
0.540392
0.698865
0.981107
1.65619
4.93691
0.0792646
0.260775
0.380694
0.461256
0.515704
0.534641
0.519142
0.482617
0.43476
0.385997
0.344588
0.308481
0.276608
0.247722
0.220253
0.188859
0.149676
0.0991215
0.0391249
0.142724
0.201409
0.230588
0.238947
0.242199
0.238259
0.225794
0.208305
0.189063
0.170617
0.15533
0.143276
0.133454
0.12491
0.116505
0.106074
0.0916978
0.0717347
0.050225
0.251255
0.217873
0.221836
0.219203
0.213553
0.20277
0.187147
0.169295
0.15173
0.136147
0.123793
0.114752
0.108092
0.102845
0.0979983
0.0921498
0.0840172
0.0729762
0.0704219
0.37296
0.258719
0.246206
0.237454
0.225637
0.208311
0.187153
0.16515
0.144863
0.127755
0.114736
0.105615
0.0993852
0.0950334
0.0915636
0.087857
0.0830074
0.0771833
0.0878043
0.5147
0.322761
0.293092
0.27749
0.258266
0.232337
0.203056
0.174319
0.148986
0.128381
0.113222
0.102832
0.0960248
0.0916912
0.0887961
0.0863383
0.0836572
0.0815722
0.1029
0.688324
0.420165
0.367753
0.341273
0.310669
0.272003
0.23092
0.192486
0.159841
0.134141
0.115763
0.10329
0.0952708
0.0904261
0.0876314
0.085913
0.0847688
0.0855709
0.116192
0.934425
0.589724
0.492449
0.443011
0.390479
0.330574
0.271599
0.219293
0.176492
0.144041
0.121301
0.105974
0.0961924
0.0904163
0.0873655
0.0860232
0.0859796
0.0890903
0.12807
1.51441
1.02161
0.73607
0.619407
0.516458
0.416681
0.328808
0.256112
0.199273
0.158027
0.129557
0.110517
0.0984161
0.0913241
0.0877153
0.0864594
0.0871858
0.0921789
0.138862
0.149703
0.156212
0.165242
0.174688
0.185534
0.197889
0.211469
0.225894
0.240767
0.255697
0.270334
0.284481
0.298276
0.312447
0.328744
0.350622
0.384257
0.439899
0.534165
0.69726
0.997716
1.65498
3.28633
0.156273
0.154712
0.157808
0.164561
0.174163
0.185849
0.19888
0.212654
0.226702
0.240654
0.254249
0.267446
0.280579
0.294557
0.311151
0.33353
0.367102
0.420727
0.507905
0.652837
0.903566
1.37337
2.31547
0.163001
0.152037
0.149818
0.154162
0.16263
0.173647
0.186067
0.199117
0.212295
0.225266
0.237839
0.250069
0.2624
0.275774
0.291778
0.313034
0.343846
0.39105
0.46521
0.582208
0.770556
1.08634
1.62082
0.170109
0.14989
0.143061
0.145118
0.15243
0.162623
0.17421
0.186332
0.198517
0.210495
0.222146
0.233591
0.245296
0.258091
0.273247
0.292817
0.320232
0.360776
0.422386
0.515418
0.656192
0.871233
1.18514
0.175556
0.148181
0.137327
0.137595
0.144092
0.153518
0.164228
0.175435
0.186775
0.198067
0.209247
0.220453
0.232083
0.244811
0.259596
0.278064
0.303335
0.340079
0.394509
0.474473
0.587716
0.745751
0.952395
0.177381
0.147472
0.13322
0.132368
0.138445
0.147252
0.157241
0.167824
0.178742
0.189885
0.201259
0.213098
0.225906
0.240261
0.256418
0.275433
0.30124
0.338492
0.392352
0.471817
0.58189
0.720121
0.876805
0.179789
0.153386
0.135148
0.131974
0.137802
0.146874
0.157335
0.168163
0.17925
0.190607
0.202321
0.214816
0.229081
0.246387
0.265799
0.286444
0.312794
0.347826
0.399439
0.477376
0.585631
0.724089
0.88721
0.274438
0.196067
0.16896
0.162222
0.163467
0.172866
0.186586
0.202913
0.222316
0.243916
0.267287
0.2921
0.319074
0.349096
0.382759
0.421404
0.466821
0.521666
0.589762
0.674573
0.775311
0.878148
0.937042
0.552075
0.328615
0.272783
0.237586
0.220202
0.219507
0.227595
0.240642
0.257
0.275907
0.296999
0.320175
0.345903
0.375099
0.408542
0.446805
0.490864
0.542539
0.604893
0.682148
0.777115
0.884558
1.00209
0.665924
0.371538
0.313
0.266764
0.245991
0.243533
0.251581
0.265442
0.282596
0.301739
0.322337
0.344462
0.368718
0.396091
0.427616
0.46442
0.508315
0.561679
0.627839
0.711391
0.818243
0.951409
1.09497
0.643084
0.336886
0.288063
0.261935
0.252387
0.255275
0.266345
0.282273
0.300852
0.320787
0.341537
0.363245
0.38663
0.412848
0.443359
0.480255
0.526526
0.586041
0.66371
0.765401
0.898333
1.06709
1.25768
0.646765
0.316014
0.26235
0.247313
0.247236
0.256175
0.270969
0.289254
0.3093
0.330009
0.35091
0.372169
0.394562
0.419422
0.44871
0.48533
0.533461
0.598661
0.687955
0.809661
0.972587
1.18079
1.41785
0.673665
0.307496
0.246531
0.234926
0.239487
0.252041
0.269171
0.288738
0.309233
0.329691
0.349705
0.369462
0.389782
0.412163
0.438949
0.473655
0.521293
0.588601
0.684064
0.817294
0.997287
1.22665
1.48703
0.708826
0.30438
0.237548
0.226146
0.232103
0.245891
0.263639
0.283117
0.302839
0.321873
0.33984
0.356951
0.374085
0.392892
0.415994
0.447258
0.492067
0.557481
0.652089
0.785043
0.963819
1.18905
1.44289
0.741758
0.302364
0.23212
0.219942
0.225673
0.239161
0.256234
0.274532
0.292526
0.309278
0.32442
0.338198
0.351568
0.36631
0.3852
0.412188
0.452551
0.512937
0.601098
0.724831
0.889878
1.09611
1.32973
0.76646
0.299782
0.228163
0.21512
0.219966
0.232359
0.248001
0.264467
0.280198
0.294257
0.306295
0.316611
0.326231
0.337012
0.351741
0.374208
0.409253
0.462744
0.541343
0.651709
0.799046
0.984685
1.20167
0.780298
0.296196
0.224409
0.210687
0.214474
0.225455
0.239341
0.253712
0.267029
0.278379
0.287454
0.294603
0.300894
0.308178
0.319117
0.337182
0.366635
0.41253
0.48067
0.577292
0.708415
0.878453
1.08812
0.78228
0.291521
0.220002
0.205867
0.208646
0.218175
0.230259
0.242556
0.253585
0.26249
0.269012
0.27353
0.277103
0.281497
0.289151
0.303147
0.327184
0.365656
0.423851
0.508148
0.626071
0.785523
0.994086
0.768956
0.283542
0.213937
0.199937
0.201957
0.210185
0.22062
0.231051
0.240097
0.246973
0.251466
0.253963
0.255468
0.257594
0.26251
0.272912
0.292037
0.32378
0.373156
0.446869
0.553856
0.704927
0.912512
0.742498
0.272429
0.206078
0.19264
0.194136
0.201263
0.210282
0.219147
0.226594
0.231913
0.234921
0.235982
0.236011
0.23645
0.239214
0.246643
0.261552
0.287466
0.329217
0.393833
0.491001
0.633479
0.835928
0.705824
0.258809
0.196638
0.184039
0.185181
0.191389
0.199223
0.206823
0.213047
0.217253
0.219272
0.219419
0.218496
0.217766
0.218902
0.223963
0.235453
0.256605
0.291989
0.348497
0.436345
0.569065
0.760944
0.662155
0.243498
0.186026
0.17439
0.175273
0.180696
0.187538
0.19413
0.19945
0.202916
0.20436
0.204036
0.20262
0.201194
0.201208
0.204465
0.213194
0.230326
0.260096
0.30904
0.387135
0.507981
0.685497
0.614737
0.227384
0.174756
0.164072
0.16472
0.169438
0.175427
0.181206
0.185866
0.188878
0.190067
0.189621
0.188091
0.186387
0.185745
0.18773
0.1943
0.208053
0.232772
0.274376
0.34211
0.449114
0.60951
0.566565
0.211326
0.163368
0.153522
0.1539
0.157947
0.163171
0.168268
0.172434
0.175189
0.176347
0.176031
0.174677
0.173031
0.172133
0.173319
0.178274
0.189236
0.209451
0.244022
0.301076
0.39271
0.533126
0.520148
0.196065
0.152369
0.143176
0.143212
0.146588
0.151095
0.155588
0.15936
0.161972
0.163232
0.163203
0.162218
0.160874
0.160031
0.160808
0.164624
0.173343
0.189641
0.217692
0.264238
0.339758
0.457811
0.477367
0.182175
0.142185
0.133425
0.133033
0.13572
0.13953
0.143459
0.146883
0.149402
0.15082
0.15115
0.150634
0.14974
0.149164
0.149827
0.152896
0.15988
0.17289
0.195162
0.231935
0.291628
0.386104
0.439457
0.170044
0.133136
0.124585
0.123678
0.125656
0.128778
0.132159
0.135246
0.137677
0.13925
0.139942
0.139915
0.139529
0.139337
0.140083
0.142709
0.148404
0.158771
0.176177
0.20441
0.249665
0.321249
0.407076
0.159893
0.125434
0.116882
0.115389
0.116642
0.119083
0.121922
0.124668
0.126985
0.128675
0.129681
0.130105
0.130214
0.130439
0.131373
0.133766
0.13854
0.146871
0.1604
0.181647
0.21473
0.266115
0.380472
0.151827
0.119203
0.110459
0.108319
0.108844
0.110616
0.112922
0.115315
0.117483
0.11923
0.120477
0.121275
0.121814
0.122427
0.12358
0.125864
0.129991
0.136809
0.147398
0.163285
0.186879
0.222072
0.359691
0.1459
0.114502
0.105383
0.102547
0.102348
0.103473
0.10526
0.107293
0.109279
0.111021
0.112424
0.1135
0.114378
0.115309
0.116656
0.118885
0.122545
0.128252
0.136693
0.148691
0.165398
0.188699
0.344817
0.142186
0.111367
0.101672
0.098087
0.0971735
0.0976794
0.0989712
0.100647
0.102425
0.104107
0.105585
0.106842
0.107959
0.10912
0.110605
0.11278
0.116076
0.12095
0.127839
0.137122
0.149121
0.164326
0.33622
0.140849
0.109837
0.099311
0.0949061
0.0932848
0.0932058
0.0940333
0.0953658
0.096921
0.0985012
0.0999866
0.101337
0.102598
0.103898
0.105452
0.107547
0.110525
0.114739
0.120484
0.127889
0.136801
0.146831
0.334797
0.142191
0.109975
0.0982666
0.092939
0.0906099
0.0899822
0.0903839
0.0913952
0.0927271
0.0941777
0.0956191
0.096994
0.0983174
0.0996773
0.101233
0.103209
0.10588
0.109531
0.114382
0.120452
0.127358
0.13423
0.342234
0.146679
0.111855
0.0984847
0.0920935
0.0890504
0.0879135
0.0879338
0.0886549
0.0897732
0.091081
0.0924442
0.093793
0.0951194
0.0964771
0.0979805
0.0998025
0.102163
0.1053
0.109398
0.114448
0.120003
0.124976
0.361314
0.154931
0.115526
0.0998649
0.092244
0.0884857
0.0868882
0.0865792
0.0870483
0.0879715
0.0891354
0.0904021
0.0916936
0.0929849
0.0943017
0.0957203
0.0973679
0.0994172
0.102068
0.105488
0.109682
0.114235
0.11802
0.396418
0.167621
0.120906
0.102208
0.0932112
0.0887697
0.0867826
0.086209
0.0864715
0.0872248
0.088252
0.0894161
0.0906355
0.0918738
0.0931346
0.0944616
0.0959399
0.0976969
0.0998929
0.102682
0.106097
0.1098
0.112736
0.45451
0.185251
0.127607
0.105145
0.0947377
0.0897244
0.0874612
0.0867066
0.0868156
0.0874279
0.0883303
0.0893923
0.0905351
0.091717
0.0929265
0.0941804
0.0955258
0.097044
0.0988499
0.101069
0.103753
0.106648
0.108832
0.546608
0.207628
0.1347
0.108065
0.0964763
0.0911413
0.088777
0.0879481
0.0879631
0.0884636
0.0892514
0.090211
0.0912735
0.0923995
0.0935705
0.0947854
0.0960607
0.0974344
0.0989693
0.100743
0.102789
0.104906
0.106302
0.68883
0.232789
0.140421
0.110113
0.0980272
0.0928083
0.0905848
0.0898063
0.0897867
0.0901981
0.0908726
0.0917191
0.0926855
0.0937426
0.0948747
0.0960751
0.0973438
0.0986885
0.100125
0.101672
0.103305
0.104801
0.105412
0.903402
0.25471
0.141925
0.11031
0.0990491
0.0945718
0.0927709
0.0921649
0.0921577
0.0924891
0.0930368
0.0937405
0.0945702
0.0955124
0.096563
0.0977227
0.0989944
0.10038
0.101878
0.103469
0.105072
0.106388
0.106566
1.22595
0.258236
0.135352
0.107882
0.0994204
0.0963882
0.0952578
0.0949079
0.094934
0.0951757
0.0955652
0.0960744
0.0966942
0.0974268
0.0982816
0.0992736
0.100422
0.101748
0.103274
0.105007
0.106895
0.108654
0.10935
1.73755
0.208276
0.117447
0.103081
0.0994872
0.098365
0.0979866
0.0978888
0.097925
0.0980426
0.0982228
0.0984607
0.0987587
0.0991245
0.0995707
0.100115
0.10078
0.101601
0.102622
0.103907
0.105531
0.107497
0.109396
6.93277
5.6869
4.36502
3.80198
3.16697
3.40065
3.44182
3.49321
2.00352
2.2544
2.40214
2.49578
1.40808
1.59589
1.75686
1.88049
1.09819
1.22582
1.35377
1.47524
0.978027
1.06396
1.15295
1.24904
0.980091
1.05396
1.12555
1.2025
0.987865
1.04777
1.11266
1.18759
1.06635
1.11283
1.15911
1.21398
1.17062
1.2255
1.27587
1.32534
1.36492
1.44394
1.51086
1.56422
1.56076
1.67298
1.77302
1.85108
1.65094
1.78534
1.9147
2.031
1.61014
1.75324
1.90299
2.05903
1.49582
1.64464
1.81352
2.01224
1.37267
1.52937
1.71523
1.94699
1.27105
1.43538
1.63096
1.87832
1.19146
1.35889
1.55339
1.79371
1.12007
1.28237
1.46282
1.67164
1.04551
1.19688
1.35802
1.53246
0.963985
1.10541
1.25144
1.40437
0.877916
1.00994
1.14253
1.27366
0.789027
0.912437
1.03526
1.15117
0.696322
0.810618
0.926205
1.03457
0.600536
0.703772
0.812428
0.918647
0.504287
0.593008
0.69127
0.793782
0.412711
0.483716
0.566391
0.65847
0.331955
0.384331
0.447885
0.522511
0.266309
0.301998
0.346689
0.401251
0.216652
0.239323
0.268477
0.305201
0.181069
0.194607
0.212529
0.23587
0.156397
0.164004
0.174481
0.188774
0.139464
0.143435
0.149249
0.157772
0.127714
0.129553
0.13255
0.137507
0.119353
0.119979
0.121311
0.124088
0.113247
0.113175
0.113518
0.11495
0.108759
0.108236
0.107946
0.108501
0.105649
0.104728
0.103932
0.10382
0.104057
0.102649
0.101284
0.100491
0.10452
0.102521
0.100406
0.0987204
0.107402
0.105179
0.102473
0.0997778
0.109362
0.108368
0.10657
0.104257
3.6354
3.23868
1.57251
1.09469
0.811743
0.596913
0.441246
0.326202
0.242629
0.185129
0.146002
0.12007
0.103615
0.093941
0.0890264
0.0875119
0.0890232
0.0964587
0.154659
3.44066
3.25933
3.01398
2.95325
1.82894
1.13235
0.738313
0.496423
0.344466
0.246689
0.18293
0.141798
0.116045
0.100854
0.0927962
0.0898575
0.0913862
0.100814
0.172087
2.61
2.63739
2.59714
2.48097
2.44839
2.19388
1.36976
0.83565
0.529824
0.351589
0.243352
0.176619
0.136002
0.11226
0.0992296
0.0936523
0.09427
0.104834
0.188307
2.03576
2.12381
2.16633
2.15627
2.11988
2.115
2.11206
1.43322
0.865359
0.532067
0.342361
0.231627
0.166982
0.129789
0.109135
0.0993811
0.0980725
0.10894
0.20391
1.66645
1.78095
1.84273
1.87059
1.86384
1.8544
1.90418
1.93047
1.35925
0.824094
0.500968
0.317274
0.214109
0.15568
0.123498
0.107551
0.103152
0.113501
0.219613
1.42896
1.56205
1.63426
1.6689
1.67799
1.66924
1.67861
1.76213
1.73424
1.20636
0.734469
0.44618
0.283404
0.192488
0.143301
0.118561
0.109737
0.118743
0.235855
1.35717
1.47271
1.53188
1.55439
1.55776
1.54899
1.54077
1.58672
1.66491
1.51208
1.02432
0.626506
0.38025
0.242355
0.169174
0.13253
0.117847
0.124723
0.252746
1.35736
1.48232
1.53534
1.52005
1.49698
1.47577
1.45685
1.46168
1.53388
1.55571
1.26101
0.825907
0.498391
0.303956
0.200495
0.149016
0.127196
0.131299
0.270127
1.35076
1.47429
1.53124
1.52555
1.46962
1.43053
1.40169
1.38897
1.44185
1.50046
1.36649
0.988968
0.617198
0.370451
0.234647
0.166785
0.137128
0.138127
0.287558
1.41816
1.52158
1.554
1.52488
1.45009
1.39572
1.35817
1.33707
1.3663
1.43749
1.38785
1.09398
0.716846
0.432275
0.26747
0.183925
0.146682
0.144696
0.30441
1.63514
1.67589
1.71096
1.49826
1.42684
1.36135
1.31872
1.28971
1.29605
1.37394
1.37449
1.15031
0.787346
0.480964
0.294527
0.198306
0.154791
0.15043
0.319954
1.94359
1.93074
1.89787
1.55387
1.40384
1.32597
1.27815
1.24498
1.24382
1.32659
1.35531
1.17459
0.826904
0.51129
0.312431
0.208196
0.160572
0.154839
0.333539
2.20428
2.19989
2.07245
1.69607
1.37161
1.28846
1.23664
1.20174
1.19908
1.29381
1.34311
1.18
0.838533
0.521994
0.319783
0.212767
0.163569
0.157636
0.344707
2.34831
2.41926
2.22519
1.73688
1.32039
1.24422
1.19212
1.15654
1.15595
1.27191
1.34342
1.17174
0.826005
0.514985
0.317302
0.212273
0.163854
0.158797
0.353238
2.44334
2.63635
2.34676
1.67133
1.2552
1.19355
1.14421
1.10995
1.11534
1.27707
1.36065
1.14917
0.794438
0.494761
0.307458
0.207893
0.161959
0.15853
0.359148
2.49641
2.87965
2.37963
1.53131
1.19172
1.14342
1.10047
1.07078
1.10267
1.33411
1.38156
1.10797
0.750123
0.467295
0.293721
0.201323
0.158669
0.157172
0.362593
2.48544
3.31917
2.53419
1.37422
1.12704
1.09816
1.06957
1.05151
1.15038
1.41762
1.37474
1.05443
0.703275
0.439598
0.279822
0.194311
0.154775
0.155066
0.363748
2.35895
3.92555
2.32651
1.11966
1.06847
1.06586
1.06547
1.06705
1.19526
1.45227
1.33126
1.00056
0.664116
0.41798
0.268828
0.188191
0.150851
0.152453
0.362694
2.12479
4.08909
1.82408
1.10943
1.04098
1.03822
1.06825
1.09435
1.22869
1.40915
1.26761
0.958284
0.641312
0.406897
0.262507
0.183584
0.147118
0.149425
0.359374
1.89303
3.56151
2.70264
1.168
1.0522
1.02392
1.05114
1.08804
1.19557
1.32992
1.21362
0.942411
0.641909
0.408371
0.260989
0.180262
0.143416
0.145926
0.353638
1.69492
2.89017
5.08672
1.21981
1.11932
1.03976
1.02449
1.04166
1.11207
1.22878
1.18394
0.964337
0.668327
0.42076
0.26244
0.17716
0.139282
0.14183
0.345359
1.49152
2.26461
4.05964
1.60409
1.22925
1.09017
1.02554
1.01049
1.02876
1.0918
1.16472
1.02003
0.712706
0.437027
0.262932
0.172602
0.134149
0.137055
0.334598
1.318
1.80432
2.86767
3.94986
1.34398
1.1949
1.05553
0.999473
0.995794
1.04004
1.17706
1.09018
0.752832
0.444511
0.257331
0.164958
0.12768
0.131705
0.321716
1.17538
1.48644
2.1139
3.09838
2.86874
1.37138
1.11261
1.0082
0.988094
1.02842
1.2546
1.15225
0.762633
0.431103
0.24206
0.153654
0.120091
0.126144
0.307369
1.05495
1.28738
1.64493
2.27396
3.04942
2.09904
1.24859
1.03367
1.00748
1.10447
1.37746
1.17529
0.72688
0.39352
0.217791
0.139795
0.112228
0.120964
0.292343
0.932607
1.15079
1.37923
1.68549
2.12238
2.32532
1.80121
1.21478
1.07768
1.25214
1.46387
1.1392
0.648844
0.339424
0.189309
0.125756
0.105268
0.116992
0.27825
0.79282
1.01899
1.23689
1.42143
1.61286
1.82636
1.76811
1.50107
1.29284
1.37471
1.45899
1.02552
0.550932
0.285116
0.163732
0.114385
0.100378
0.115079
0.266939
0.638669
0.852505
1.08405
1.28689
1.43161
1.53513
1.6013
1.58282
1.47695
1.46585
1.31556
0.845361
0.444737
0.235858
0.143044
0.106366
0.0976826
0.114599
0.257747
0.490267
0.663634
0.870451
1.08465
1.27121
1.39967
1.47365
1.4995
1.46138
1.3484
1.05099
0.638244
0.343915
0.194065
0.127268
0.101316
0.0968008
0.115031
0.250143
0.367187
0.490531
0.64279
0.812668
0.981191
1.12508
1.21665
1.24108
1.18749
1.02589
0.744677
0.453249
0.260797
0.16131
0.115903
0.0985
0.0971349
0.115896
0.243723
0.276457
0.357308
0.456338
0.56801
0.683424
0.792036
0.865246
0.880518
0.822988
0.685582
0.492813
0.315714
0.199767
0.137438
0.10804
0.0970684
0.0980304
0.116771
0.238199
0.214501
0.265466
0.325909
0.392358
0.461611
0.525654
0.567459
0.571208
0.526948
0.437001
0.324271
0.22505
0.158434
0.120877
0.102614
0.0962683
0.0989283
0.117343
0.233381
0.173883
0.205761
0.241891
0.279584
0.318225
0.351266
0.370286
0.367078
0.337334
0.284806
0.223097
0.169196
0.131686
0.10958
0.0986767
0.0955617
0.0994544
0.117431
0.22915
0.147598
0.167792
0.189563
0.211082
0.231372
0.246914
0.253669
0.248025
0.228737
0.198746
0.165135
0.135713
0.114573
0.101731
0.0955456
0.0946504
0.0994354
0.116991
0.225441
0.130435
0.143529
0.156896
0.169273
0.179589
0.186181
0.187244
0.181421
0.168694
0.151041
0.13209
0.115528
0.103412
0.0960199
0.0928161
0.0934349
0.0988625
0.116076
0.222217
0.11893
0.127652
0.136108
0.143228
0.148262
0.150475
0.149144
0.1439
0.135113
0.124082
0.112746
0.102955
0.0958131
0.0916209
0.0902988
0.0919463
0.0978319
0.114801
0.21946
0.110912
0.11683
0.122302
0.126356
0.12859
0.128712
0.126496
0.121966
0.115557
0.108149
0.100861
0.0947143
0.0903588
0.0880649
0.0879363
0.0902803
0.0964872
0.113297
0.217155
0.105053
0.109012
0.112523
0.11474
0.115479
0.11465
0.11223
0.108369
0.103463
0.0981354
0.0931006
0.0889928
0.0862453
0.0850996
0.0857348
0.0885488
0.0949754
0.11169
0.215286
0.10058
0.102895
0.10492
0.10595
0.105902
0.104728
0.102447
0.099215
0.0953605
0.0913436
0.0876685
0.0847815
0.0830123
0.082587
0.0837205
0.0868519
0.0934246
0.110089
0.213824
0.0972763
0.0976062
0.0981792
0.0983337
0.0979059
0.0967508
0.0948285
0.0922487
0.0892623
0.0862194
0.0835014
0.0814555
0.0803595
0.0804344
0.0819169
0.0852684
0.0919308
0.108566
0.212716
0.0960582
0.0926203
0.0914144
0.0908701
0.0903166
0.0893815
0.0879406
0.0860468
0.0838817
0.0817094
0.0798252
0.0785098
0.0780068
0.0785319
0.0803342
0.0838875
0.0906313
0.107264
0.211925
0.100101
0.0883185
0.0853298
0.0843305
0.0837122
0.0829151
0.081798
0.0803982
0.0788561
0.0773747
0.0761838
0.0755099
0.0755623
0.0765426
0.0786972
0.0824942
0.089349
0.10604
0.211184
)
;

boundaryField
{
    leftWall
    {
        lowReCorrection 0;
        blending        stepwise;
        n               2;
        type            epsilonWallFunction;
        value           nonuniform List<scalar> 
50
(
0.0477137
0.0579396
0.0773821
0.0973388
0.114075
0.127216
0.136634
0.143516
0.149703
0.156273
0.163001
0.170109
0.175556
0.177381
0.179789
0.274438
0.552075
0.665924
0.643084
0.646765
0.673665
0.708826
0.741758
0.76646
0.780298
0.78228
0.768956
0.742498
0.705824
0.662155
0.614737
0.566565
0.520148
0.477367
0.439457
0.407076
0.380472
0.359691
0.344817
0.33622
0.334797
0.342234
0.361314
0.396418
0.45451
0.546608
0.68883
0.903402
1.22595
1.73755
)
;
    }
    rightWall
    {
        lowReCorrection 0;
        blending        stepwise;
        n               2;
        type            epsilonWallFunction;
        value           nonuniform List<scalar> 
50
(
0.0391249
0.050225
0.0704219
0.0878043
0.1029
0.116192
0.12807
0.138862
0.154659
0.172087
0.188307
0.20391
0.219613
0.235855
0.252746
0.270127
0.287558
0.30441
0.319954
0.333539
0.344707
0.353238
0.359148
0.362593
0.363748
0.362694
0.359374
0.353638
0.345359
0.334598
0.321716
0.307369
0.292343
0.27825
0.266939
0.257747
0.250143
0.243723
0.238199
0.233381
0.22915
0.225441
0.222217
0.21946
0.217155
0.215286
0.213824
0.212716
0.211925
0.211184
)
;
    }
    lowerWall
    {
        lowReCorrection 0;
        blending        stepwise;
        n               2;
        type            epsilonWallFunction;
        value           nonuniform List<scalar> 
62
(
0.0477137
0.160009
0.309116
0.452808
0.5825
0.709158
0.838163
0.972308
1.11176
1.25421
1.39507
1.52761
1.64324
1.73181
1.78193
1.77824
1.72926
1.63911
1.5025
1.32846
1.13252
0.88062
0.603124
0.603124
0.787671
1.38842
2.04104
2.63235
3.26256
3.98503
4.93691
6.93277
5.6869
4.36502
3.80198
0.0792646
0.142724
0.251255
0.37296
0.5147
0.688324
0.934425
1.51441
0.0792646
0.260775
0.380694
0.461256
0.515704
0.534641
0.519142
0.482617
0.43476
0.385997
0.344588
0.308481
0.276608
0.247722
0.220253
0.188859
0.149676
0.0991215
0.0391249
)
;
    }
    atmosphere
    {
        type            inletOutlet;
        inletValue      uniform 0.1;
        value           nonuniform List<scalar> 
46
(
0.1
0.1
0.1
0.1
0.1
0.1
0.1
0.1
0.1
0.1
0.1
0.1
0.1
0.1
0.1
0.1
0.1
0.1
0.1
0.1
0.1
0.1
0.1
0.1
0.1
0.1
0.1
0.1
0.0883185
0.0853298
0.0843305
0.0837122
0.0829151
0.081798
0.0803982
0.0788561
0.0773747
0.0761838
0.0755099
0.0755623
0.0765426
0.0786972
0.0824942
0.089349
0.10604
0.211184
)
;
    }
    defaultFaces
    {
        type            empty;
    }
}


// ************************************************************************* //
