/*--------------------------------*- C++ -*----------------------------------*\
| =========                 |                                                 |
| \\      /  F ield         | OpenFOAM: The Open Source CFD Toolbox           |
|  \\    /   O peration     | Version:  v2012                                 |
|   \\  /    A nd           | Website:  www.openfoam.com                      |
|    \\/     M anipulation  |                                                 |
\*---------------------------------------------------------------------------*/
FoamFile
{
    version     2.0;
    format      ascii;
    class       volScalarField;
    location    "0.3";
    object      k;
}
// * * * * * * * * * * * * * * * * * * * * * * * * * * * * * * * * * * * * * //

dimensions      [0 2 -2 0 0 0 0];


internalField   nonuniform List<scalar> 
2268
(
0.00613573
0.0112095
0.0173994
0.02246
0.0265663
0.0302807
0.0338334
0.0373315
0.040795
0.0441817
0.0474032
0.0503351
0.0528247
0.054695
0.0557439
0.0556722
0.0546675
0.052766
0.049804
0.0458919
0.0412595
0.0349733
0.0271075
0.00938102
0.0237854
0.0359473
0.045516
0.0535146
0.0606384
0.0673319
0.0738176
0.0801439
0.0862391
0.0919518
0.0970803
0.101401
0.1047
0.106827
0.107701
0.107037
0.105402
0.103668
0.103107
0.103518
0.095425
0.0532938
0.0113404
0.0299372
0.0440139
0.0555832
0.0654558
0.07431
0.0826131
0.0906054
0.0983401
0.105737
0.112632
0.118809
0.124044
0.128158
0.131081
0.132927
0.133829
0.134309
0.134922
0.136383
0.13835
0.130824
0.0776249
0.0132156
0.0339908
0.0491496
0.0617926
0.0727974
0.0827853
0.0921781
0.10119
0.109861
0.118105
0.125754
0.132605
0.138457
0.143184
0.146814
0.149623
0.152067
0.154864
0.15841
0.162508
0.16543
0.159412
0.100462
0.0146985
0.0370833
0.0528191
0.0660506
0.0777957
0.0886107
0.0988394
0.108644
0.118036
0.126924
0.135144
0.142513
0.148868
0.154144
0.158467
0.162248
0.16616
0.171104
0.177513
0.184682
0.189496
0.185849
0.119016
0.0158157
0.0393949
0.0554559
0.0690269
0.0812838
0.0927306
0.103627
0.114072
0.124048
0.133452
0.142132
0.149928
0.156726
0.162524
0.167537
0.172285
0.177591
0.184491
0.193564
0.204022
0.21203
0.212378
0.137294
0.0165953
0.040986
0.0572382
0.0710412
0.083687
0.0956359
0.107072
0.118038
0.128485
0.138303
0.147354
0.155509
0.162702
0.168998
0.174686
0.180372
0.186981
0.195631
0.207107
0.220845
0.233292
0.24013
0.156826
0.0171506
0.0419616
0.0582998
0.0722942
0.0852655
0.0976269
0.1095
0.120881
0.131698
0.141839
0.151182
0.159632
0.167173
0.173933
0.180268
0.186838
0.194626
0.204802
0.218336
0.235037
0.252611
0.26862
0.180773
0.00701942
0.0155971
0.0200778
0.0228502
0.0246696
0.0252993
0.0248306
0.023664
0.0220663
0.0203892
0.0188849
0.0175061
0.0162392
0.015059
0.0139012
0.0125283
0.0107147
0.00812822
0.00545569
0.0184328
0.0363055
0.0437582
0.0486964
0.051595
0.0524158
0.0516156
0.0496152
0.0468007
0.0435442
0.0402956
0.0373488
0.034726
0.032299
0.0298554
0.0270371
0.0233477
0.0179809
0.00910827
0.0268757
0.0507204
0.0592193
0.0643957
0.067062
0.0675084
0.0661707
0.0634648
0.0598241
0.0556728
0.0515123
0.0477233
0.044354
0.0412732
0.03821
0.0347185
0.0301704
0.0235121
0.011428
0.0349374
0.0636127
0.0724431
0.0774674
0.0796389
0.0794917
0.077482
0.074038
0.0696255
0.064694
0.0597883
0.0553053
0.0513124
0.0476901
0.044143
0.0401733
0.0350645
0.0275668
0.0132539
0.0432372
0.0765889
0.0852896
0.0899422
0.0915027
0.0905965
0.0877613
0.0834699
0.0782231
0.0724868
0.0668576
0.0617
0.057095
0.052939
0.0489297
0.0445357
0.0389723
0.0308144
0.0147469
0.0523639
0.0904559
0.0987335
0.102729
0.103537
0.101677
0.0978244
0.0925323
0.0863356
0.0797263
0.0733444
0.0674876
0.062246
0.0575313
0.0530451
0.0482326
0.0422521
0.0335208
0.0160053
0.063932
0.106744
0.114258
0.116979
0.116565
0.113341
0.108151
0.101633
0.0943192
0.0867588
0.0795579
0.072953
0.067033
0.0617227
0.056732
0.051486
0.0450955
0.0358372
0.017093
0.0872683
0.134093
0.136047
0.135074
0.131915
0.126323
0.119162
0.111041
0.102384
0.0937733
0.0856661
0.0782509
0.0716039
0.0656596
0.0601363
0.0544348
0.0476275
0.0378689
0.0180567
0.0176432
0.0425579
0.0589118
0.0731611
0.0865465
0.0994098
0.111802
0.123666
0.134908
0.145416
0.155098
0.16391
0.171917
0.179341
0.186628
0.194512
0.204014
0.216237
0.232295
0.252545
0.27642
0.300629
0.249417
0.0181558
0.0424217
0.0585526
0.0729732
0.086685
0.0999174
0.11265
0.124788
0.136228
0.146881
0.156692
0.165686
0.174014
0.181989
0.190102
0.199056
0.209745
0.223068
0.239744
0.260002
0.282879
0.303955
0.297362
0.0186699
0.0419362
0.0577306
0.0721222
0.0859054
0.0992141
0.111973
0.124068
0.135407
0.145925
0.155605
0.164521
0.172885
0.181052
0.189489
0.198784
0.209642
0.222758
0.238544
0.256905
0.2768
0.295535
0.304568
0.0191914
0.041202
0.0566448
0.0708985
0.0845973
0.0977753
0.110324
0.122142
0.133172
0.143387
0.152808
0.161546
0.169846
0.178053
0.186554
0.195795
0.206336
0.218731
0.233286
0.249748
0.267286
0.284277
0.296923
0.0195608
0.0396419
0.0550149
0.0693297
0.0829866
0.0959486
0.10816
0.119594
0.13026
0.14018
0.149398
0.158043
0.166365
0.174696
0.183324
0.192525
0.202828
0.214781
0.228583
0.243989
0.260042
0.275646
0.288754
0.0196603
0.0368425
0.0530641
0.067866
0.0815492
0.0942533
0.106099
0.117192
0.127615
0.137418
0.146658
0.155494
0.164235
0.173229
0.182507
0.192013
0.202567
0.214752
0.228442
0.24381
0.259654
0.273982
0.285342
0.0199027
0.0325347
0.0515743
0.0675652
0.0813423
0.0940795
0.106088
0.117341
0.127831
0.13771
0.147064
0.156116
0.165336
0.175273
0.185509
0.195408
0.206021
0.217459
0.230448
0.24536
0.260699
0.274698
0.286843
0.0282165
0.0426865
0.0624712
0.0788317
0.0927996
0.106988
0.121079
0.134639
0.148113
0.161105
0.173486
0.185314
0.197039
0.209053
0.221475
0.234502
0.24834
0.26317
0.279044
0.295496
0.310734
0.31927
0.304574
0.0436411
0.0775646
0.0961698
0.10762
0.117899
0.129407
0.141198
0.152794
0.164098
0.17506
0.185662
0.195958
0.206218
0.216827
0.228022
0.239862
0.252407
0.265779
0.280178
0.295784
0.312136
0.326558
0.336483
0.0481589
0.0914197
0.112853
0.122808
0.132701
0.14379
0.155309
0.166603
0.17734
0.187395
0.196799
0.205724
0.214491
0.223506
0.233109
0.243539
0.255053
0.267835
0.282077
0.298071
0.316267
0.336365
0.354839
0.0469082
0.0888288
0.113216
0.128418
0.141292
0.15367
0.165713
0.177152
0.187737
0.197361
0.206081
0.214128
0.221879
0.229792
0.238328
0.24796
0.259139
0.272211
0.287437
0.30507
0.325582
0.34907
0.373066
0.0472611
0.0864809
0.111982
0.130242
0.145446
0.159189
0.171938
0.18368
0.194296
0.203731
0.212069
0.219561
0.226607
0.233717
0.241471
0.250503
0.261435
0.274797
0.290994
0.310344
0.33312
0.359
0.385443
0.0486191
0.0869069
0.112247
0.131385
0.14754
0.161953
0.175038
0.186841
0.197304
0.206412
0.214272
0.221145
0.22745
0.233738
0.240669
0.248976
0.259395
0.272573
0.288998
0.308914
0.332232
0.35806
0.383618
0.050275
0.0887096
0.113479
0.132406
0.148558
0.162962
0.175915
0.187429
0.197452
0.205984
0.213146
0.21921
0.224615
0.229949
0.23593
0.24335
0.252987
0.265498
0.281303
0.300423
0.322334
0.345641
0.367469
0.0517552
0.0908136
0.114925
0.133229
0.1489
0.162862
0.175324
0.186258
0.195598
0.203346
0.209631
0.21474
0.219135
0.223442
0.228417
0.234871
0.243564
0.255082
0.269696
0.287194
0.306734
0.326681
0.344356
0.0528132
0.0925431
0.116052
0.133677
0.1487
0.162011
0.173779
0.183956
0.19247
0.199323
0.204652
0.208764
0.212142
0.215442
0.219435
0.224921
0.232608
0.242982
0.256192
0.271914
0.289264
0.30672
0.32208
0.0533538
0.0935196
0.116543
0.13357
0.14794
0.160539
0.171541
0.180899
0.188546
0.194494
0.198892
0.202061
0.204502
0.20688
0.209964
0.214522
0.221201
0.23042
0.242288
0.256545
0.272531
0.289109
0.304689
0.0533693
0.0935686
0.116222
0.132751
0.146522
0.158436
0.168688
0.177252
0.184078
0.189194
0.192761
0.195109
0.196743
0.198322
0.200591
0.204282
0.21
0.218143
0.228876
0.242135
0.257638
0.274756
0.292488
0.0527023
0.0926757
0.114998
0.13111
0.144356
0.155654
0.165226
0.173077
0.179184
0.183591
0.18647
0.188153
0.189134
0.19005
0.191612
0.194518
0.199361
0.206563
0.2164
0.229063
0.244673
0.263104
0.283802
0.051442
0.0908828
0.112842
0.128578
0.141368
0.152132
0.161122
0.168376
0.173898
0.177748
0.180103
0.181287
0.181775
0.182172
0.183155
0.185396
0.18948
0.195885
0.205027
0.217356
0.233322
0.253239
0.276828
0.0497046
0.0882917
0.109816
0.125182
0.13756
0.147862
0.156366
0.163142
0.168218
0.171666
0.173662
0.174514
0.174667
0.174691
0.175231
0.17694
0.180419
0.186204
0.194824
0.206913
0.223242
0.244452
0.270355
0.0476179
0.0850519
0.10605
0.121021
0.133005
0.142897
0.150996
0.157397
0.16215
0.165337
0.167127
0.167804
0.167779
0.167582
0.167821
0.169135
0.172138
0.177419
0.185594
0.197435
0.213919
0.235986
0.263634
0.0453145
0.0813459
0.101716
0.11625
0.127835
0.137346
0.145095
0.151202
0.155733
0.158776
0.160489
0.161129
0.161071
0.160797
0.160879
0.161933
0.164578
0.169433
0.177166
0.188625
0.204915
0.227236
0.255963
0.0429239
0.0773733
0.0970211
0.111063
0.122228
0.131365
0.138796
0.144661
0.149042
0.152027
0.153763
0.15448
0.15451
0.154289
0.154345
0.155262
0.157649
0.16213
0.169388
0.180283
0.195961
0.21781
0.246666
0.0405634
0.0733341
0.0921808
0.105674
0.116388
0.125141
0.132266
0.137918
0.14219
0.145174
0.147
0.147872
0.148081
0.148016
0.148154
0.149038
0.151249
0.155393
0.162132
0.172282
0.186948
0.207571
0.235402
0.0383312
0.0694134
0.0874058
0.100302
0.110529
0.118879
0.125693
0.131139
0.13532
0.138326
0.140277
0.141349
0.141796
0.141955
0.142252
0.14318
0.145277
0.149112
0.155297
0.164565
0.177895
0.196638
0.222246
0.0363024
0.0657703
0.0828872
0.0951502
0.104858
0.112783
0.119271
0.124502
0.128587
0.131616
0.133698
0.134984
0.13569
0.136108
0.136608
0.137629
0.139657
0.143206
0.148823
0.157129
0.168927
0.18534
0.207751
0.034529
0.0625309
0.0787865
0.090399
0.0995645
0.107042
0.113185
0.118182
0.122153
0.125187
0.127381
0.128867
0.129825
0.130505
0.131222
0.132358
0.134342
0.137627
0.142683
0.150014
0.160222
0.174126
0.192813
0.0330441
0.0597879
0.0752311
0.0861959
0.0948072
0.101821
0.107598
0.112339
0.116169
0.119176
0.121451
0.123102
0.124283
0.1252
0.126121
0.127372
0.129321
0.132361
0.136885
0.143283
0.151964
0.163432
0.178362
0.0318712
0.0576063
0.0723155
0.0826542
0.090711
0.0972498
0.102645
0.107108
0.110766
0.11371
0.116021
0.117792
0.11915
0.120264
0.121358
0.122705
0.124617
0.127427
0.131459
0.137005
0.14431
0.153592
0.165113
0.0310351
0.056035
0.070108
0.0798553
0.0873665
0.093427
0.098428
0.10259
0.106048
0.108891
0.111192
0.113032
0.114513
0.115775
0.117
0.118413
0.120276
0.122867
0.126453
0.131249
0.137373
0.144818
0.153489
0.0305757
0.0551211
0.0686608
0.0778547
0.0848329
0.0904149
0.0950123
0.0988569
0.102087
0.104792
0.107039
0.108896
0.110447
0.111804
0.113113
0.114559
0.116356
0.118738
0.121923
0.126071
0.131217
0.137199
0.143647
0.0305602
0.0549248
0.0680214
0.0766909
0.083144
0.088246
0.0924314
0.0959422
0.0989203
0.101454
0.103606
0.105434
0.107005
0.108407
0.109757
0.111201
0.112915
0.115093
0.117916
0.121508
0.125861
0.13072
0.135532
0.0310952
0.0555304
0.068242
0.0763917
0.0823136
0.086927
0.0906891
0.0938503
0.0965546
0.0988885
0.10091
0.102668
0.104216
0.10562
0.106972
0.108387
0.110004
0.111982
0.114474
0.117584
0.121288
0.125297
0.128958
0.0323361
0.0570506
0.0693805
0.0769762
0.0823378
0.0864416
0.0897632
0.0925572
0.0949665
0.097075
0.0989358
0.10059
0.102079
0.103453
0.104778
0.106143
0.107655
0.109442
0.111631
0.114315
0.117472
0.120823
0.123684
0.0344989
0.0596219
0.0714901
0.0784455
0.08319
0.086749
0.0896064
0.0920131
0.0941072
0.0959673
0.0976416
0.0991641
0.100566
0.101884
0.103166
0.104472
0.105883
0.107495
0.109412
0.111716
0.114395
0.117205
0.119483
0.0378855
0.0633863
0.0745927
0.0807633
0.0848089
0.0877783
0.0901445
0.0921444
0.0939047
0.0954965
0.0969621
0.0983296
0.0996224
0.100866
0.102091
0.103339
0.104664
0.106133
0.107823
0.109798
0.112055
0.114388
0.116192
0.0429023
0.0684615
0.0786414
0.0838292
0.0870824
0.0894193
0.0912732
0.0928522
0.0942653
0.0955729
0.0968103
0.0980006
0.0991614
0.100311
0.101468
0.102661
0.103921
0.10529
0.106817
0.108541
0.110449
0.112362
0.113731
0.0500239
0.0748935
0.083477
0.0874572
0.0898382
0.0915203
0.0928585
0.0940165
0.0950784
0.0960911
0.0970825
0.0980713
0.0990721
0.100099
0.101166
0.102292
0.103497
0.104805
0.106242
0.10782
0.109504
0.111107
0.112102
0.0597543
0.082567
0.0887798
0.0913653
0.0928498
0.0938986
0.0947493
0.0955077
0.0962288
0.0969441
0.0976739
0.0984332
0.0992349
0.100092
0.101019
0.102033
0.103151
0.104394
0.105779
0.107308
0.108929
0.110439
0.111278
0.0728583
0.0909354
0.0940036
0.095168
0.0958432
0.0963474
0.0967807
0.097189
0.0975981
0.098025
0.0984823
0.098981
0.0995326
0.10015
0.100847
0.101644
0.102562
0.103627
0.104867
0.106302
0.107914
0.109542
0.110644
0.0912869
0.0982882
0.0983761
0.0984396
0.0985447
0.0986622
0.0987842
0.098913
0.0990533
0.0992098
0.0993875
0.0995917
0.099829
0.100107
0.100437
0.100831
0.101307
0.101888
0.102607
0.103507
0.104635
0.106002
0.107399
0.227516
0.199638
0.167582
0.151052
0.276835
0.257111
0.245024
0.245037
0.30002
0.290044
0.27786
0.268154
0.300052
0.29925
0.294879
0.287641
0.294159
0.296618
0.296838
0.294386
0.289924
0.292264
0.293316
0.292876
0.290398
0.291839
0.292159
0.291355
0.296619
0.294178
0.293313
0.292089
0.33775
0.335877
0.332206
0.326338
0.361647
0.364317
0.364529
0.361969
0.384781
0.391558
0.395214
0.39496
0.399658
0.409025
0.415589
0.417998
0.397645
0.40726
0.414803
0.419215
0.379272
0.387459
0.394465
0.399894
0.353979
0.360885
0.367565
0.37431
0.331217
0.338201
0.345738
0.354545
0.315319
0.32364
0.332841
0.343941
0.305916
0.315969
0.326538
0.338526
0.300336
0.311668
0.32252
0.333218
0.296217
0.308369
0.318984
0.328071
0.292186
0.305297
0.316095
0.324379
0.287798
0.302194
0.313752
0.32173
0.282273
0.298206
0.311217
0.31991
0.274485
0.291928
0.306944
0.317699
0.263593
0.28209
0.29921
0.313068
0.249251
0.267806
0.286303
0.303177
0.231966
0.249269
0.267676
0.286162
0.213096
0.228003
0.244706
0.262715
0.194299
0.206212
0.220107
0.235893
0.176936
0.185836
0.19657
0.209298
0.161807
0.168057
0.175843
0.185476
0.149211
0.153328
0.158651
0.165574
0.139076
0.141596
0.145007
0.149747
0.131112
0.132509
0.134524
0.137609
0.124928
0.125581
0.126633
0.128524
0.120141
0.120315
0.120726
0.121787
0.116442
0.116297
0.116276
0.11676
0.113636
0.11324
0.112893
0.112944
0.111666
0.111021
0.110362
0.110019
0.11058
0.109694
0.108701
0.107928
0.110122
0.109247
0.108107
0.106987
0.107757
0.107531
0.106981
0.106317
0.199181
0.22973
0.192537
0.173236
0.160434
0.148135
0.136528
0.125364
0.114511
0.104309
0.0948335
0.0862028
0.0784644
0.0715534
0.0651637
0.0587132
0.0512367
0.0407257
0.0194369
0.253436
0.254209
0.257899
0.260185
0.227538
0.194352
0.168459
0.14878
0.133153
0.119831
0.107945
0.0972751
0.0877617
0.0792956
0.0714952
0.0638213
0.0552923
0.0437544
0.0209134
0.259763
0.261094
0.26232
0.26158
0.264259
0.261846
0.220245
0.183153
0.157015
0.138054
0.122678
0.109391
0.0977286
0.0874363
0.0780058
0.0689061
0.0591537
0.0465042
0.0222623
0.272018
0.262147
0.259124
0.259185
0.259061
0.261304
0.269638
0.233077
0.190976
0.161272
0.140117
0.123197
0.108872
0.0963699
0.0850393
0.0742841
0.0630969
0.0491721
0.0235408
0.284201
0.270411
0.259945
0.254905
0.25354
0.253786
0.258584
0.267748
0.234094
0.191848
0.161542
0.139316
0.121546
0.106318
0.0927806
0.0801468
0.0673138
0.0519122
0.0248107
0.288306
0.27747
0.264723
0.254596
0.249072
0.247313
0.248137
0.256045
0.26129
0.226657
0.187552
0.158342
0.135903
0.117311
0.101233
0.086529
0.0718797
0.0548094
0.0261074
0.287423
0.278867
0.267373
0.255576
0.246735
0.242094
0.24084
0.244193
0.253494
0.249846
0.215359
0.180264
0.151923
0.129185
0.110213
0.0932962
0.0767365
0.0578652
0.0274382
0.287677
0.278458
0.266282
0.253942
0.244081
0.237563
0.234615
0.234917
0.24185
0.249634
0.234822
0.20142
0.168498
0.141387
0.119314
0.100147
0.0816939
0.0609955
0.028788
0.310103
0.283412
0.264799
0.249802
0.239503
0.232637
0.228805
0.227684
0.232712
0.242021
0.241208
0.217282
0.183655
0.152979
0.127938
0.106647
0.0864561
0.0640432
0.0301204
0.350995
0.32447
0.278434
0.245866
0.233434
0.226807
0.222747
0.221125
0.224312
0.234255
0.240406
0.226791
0.195738
0.162908
0.135397
0.112304
0.0906752
0.0668075
0.0313862
0.386547
0.362683
0.32165
0.240436
0.226664
0.220273
0.216438
0.214445
0.215905
0.226369
0.237331
0.231863
0.204232
0.170365
0.141075
0.11667
0.0940256
0.0690881
0.0325315
0.413636
0.389695
0.351082
0.250865
0.219955
0.213596
0.209893
0.207854
0.2089
0.220406
0.235099
0.234797
0.209325
0.174891
0.144559
0.119439
0.0962786
0.0707335
0.0335112
0.420355
0.401696
0.361654
0.27434
0.213161
0.206916
0.203234
0.20132
0.202531
0.216346
0.235018
0.236956
0.211396
0.17642
0.145737
0.120523
0.0973546
0.0716754
0.0342968
0.406291
0.397206
0.358576
0.271945
0.204805
0.199781
0.196388
0.194581
0.196245
0.213867
0.237674
0.238611
0.210715
0.175213
0.144814
0.120071
0.0973386
0.0719394
0.03488
0.387304
0.387589
0.346484
0.251842
0.19544
0.19232
0.18945
0.187954
0.190444
0.215506
0.243918
0.239198
0.207585
0.171837
0.142278
0.118437
0.0964524
0.0716295
0.0352701
0.375457
0.385118
0.326787
0.225517
0.186747
0.185087
0.183197
0.18256
0.188529
0.225027
0.252335
0.237578
0.202508
0.16712
0.138826
0.116111
0.0949954
0.070891
0.0354874
0.371789
0.406556
0.323229
0.200659
0.177701
0.178274
0.178299
0.179606
0.195414
0.238688
0.256879
0.233488
0.196597
0.162182
0.135281
0.113612
0.0932672
0.0698652
0.0355529
0.365728
0.441109
0.282248
0.172459
0.170132
0.172235
0.174875
0.179762
0.201825
0.246906
0.254182
0.22797
0.191289
0.158213
0.1324
0.111366
0.091489
0.0686495
0.0354796
0.354219
0.462916
0.231281
0.171817
0.166679
0.167652
0.171982
0.179534
0.205012
0.243494
0.246833
0.222735
0.188095
0.156214
0.130693
0.109595
0.0897472
0.0672744
0.0352682
0.345581
0.450544
0.304441
0.177736
0.167722
0.165575
0.169211
0.174541
0.195462
0.23063
0.237968
0.220002
0.188462
0.156795
0.130288
0.108252
0.0879736
0.0657033
0.0349078
0.338727
0.417437
0.516375
0.182683
0.174873
0.167195
0.166139
0.168402
0.179952
0.209926
0.229199
0.221831
0.193256
0.15989
0.130825
0.107012
0.0859664
0.0638562
0.0343829
0.332398
0.384585
0.500968
0.222038
0.186183
0.172899
0.166635
0.165769
0.168661
0.182307
0.218245
0.228387
0.201865
0.164434
0.131419
0.105329
0.0834638
0.0616572
0.0336845
0.328501
0.358249
0.431691
0.463366
0.197758
0.184676
0.170805
0.16585
0.166378
0.173896
0.216107
0.240059
0.211844
0.168287
0.13082
0.102619
0.0802689
0.0590963
0.0328212
0.327346
0.343486
0.386312
0.444518
0.358894
0.2034
0.178321
0.168451
0.168014
0.17381
0.230842
0.256566
0.219776
0.169044
0.127945
0.0985518
0.0763901
0.0562771
0.0318238
0.327016
0.339649
0.357822
0.395298
0.426961
0.285304
0.195129
0.173159
0.173669
0.190083
0.25671
0.273365
0.222468
0.165289
0.122498
0.0932869
0.0721067
0.0534123
0.0307401
0.32306
0.342397
0.351267
0.360157
0.37682
0.358537
0.27415
0.199366
0.186325
0.21911
0.283794
0.283755
0.218022
0.157215
0.115162
0.087473
0.0678915
0.05073
0.02967
0.310896
0.341658
0.358861
0.359193
0.352494
0.345734
0.313824
0.261222
0.232056
0.253079
0.309956
0.281329
0.206776
0.146841
0.107479
0.0820917
0.0642751
0.0484741
0.028781
0.289062
0.32791
0.359038
0.373498
0.369358
0.355563
0.340476
0.317941
0.295738
0.306957
0.318336
0.263751
0.18968
0.135317
0.100259
0.0776247
0.061491
0.0467468
0.0280405
0.260454
0.300192
0.338061
0.366884
0.381028
0.37895
0.3678
0.354111
0.340042
0.330284
0.299207
0.233744
0.169307
0.123697
0.09389
0.0741667
0.0595332
0.0455188
0.0274184
0.230035
0.265137
0.300719
0.331957
0.354435
0.364863
0.363015
0.351713
0.333509
0.305659
0.258712
0.199883
0.1492
0.113047
0.0885658
0.071616
0.0582634
0.0447023
0.0268887
0.201821
0.230152
0.259162
0.285418
0.305913
0.318644
0.320638
0.311034
0.290206
0.257831
0.214658
0.169404
0.131774
0.104017
0.084281
0.0697671
0.0574794
0.0441813
0.0264306
0.177842
0.199508
0.221436
0.241003
0.256443
0.265971
0.267004
0.25808
0.239047
0.211146
0.177869
0.145213
0.117833
0.0967451
0.0808938
0.0683971
0.0569823
0.0438454
0.0260295
0.158605
0.174625
0.19054
0.204231
0.214878
0.220623
0.219846
0.211578
0.195961
0.174563
0.150415
0.127135
0.107149
0.0910511
0.0782129
0.0673203
0.0566189
0.0436106
0.0256758
0.143795
0.15537
0.166653
0.17606
0.182838
0.185724
0.183741
0.17642
0.164127
0.14821
0.130773
0.113958
0.0991317
0.086645
0.0760604
0.0664096
0.0562942
0.0434244
0.0253637
0.132718
0.140946
0.148782
0.155085
0.159116
0.160123
0.157559
0.151262
0.141646
0.129731
0.116902
0.104451
0.0931723
0.0832399
0.0742987
0.0655945
0.0559657
0.0432618
0.0250904
0.124546
0.130343
0.13572
0.139771
0.141923
0.141753
0.138979
0.133595
0.125976
0.116855
0.107137
0.0976159
0.0887512
0.0805945
0.0728334
0.0648472
0.0556268
0.0431168
0.0248546
0.11849
0.12254
0.126181
0.128636
0.129541
0.128666
0.125882
0.121249
0.115076
0.107878
0.100253
0.0926925
0.0854567
0.0785229
0.0716052
0.0641656
0.0552909
0.0429935
0.0246555
0.113891
0.11664
0.119017
0.120365
0.120475
0.119223
0.116553
0.11254
0.107421
0.101559
0.0953515
0.0891105
0.082977
0.0768883
0.0705777
0.0635583
0.0549771
0.0428988
0.0244922
0.110263
0.111918
0.113279
0.113834
0.113464
0.112076
0.109625
0.106162
0.101859
0.0969695
0.0917631
0.0864411
0.0810772
0.0755891
0.0697261
0.0630353
0.054703
0.0428381
0.0243629
0.107376
0.107814
0.108179
0.108104
0.107471
0.106131
0.103996
0.101076
0.0974792
0.0933782
0.0889544
0.0843384
0.0795635
0.0745385
0.069027
0.0626016
0.0544783
0.0428093
0.0242638
0.105515
0.103958
0.10317
0.102575
0.101828
0.100646
0.098881
0.096503
0.0935676
0.0901817
0.0864592
0.0824764
0.0782348
0.0736344
0.0684475
0.0622643
0.0543251
0.0428207
0.0241925
0.105326
0.100564
0.098803
0.0978774
0.0970627
0.0959719
0.0944474
0.0924488
0.0900039
0.0871753
0.0840266
0.0805897
0.0768352
0.0726478
0.0677968
0.0618768
0.0541371
0.042811
0.0241277
)
;

boundaryField
{
    leftWall
    {
        type            kqRWallFunction;
        value           nonuniform List<scalar> 
50
(
0.00613573
0.00938102
0.0113404
0.0132156
0.0146985
0.0158157
0.0165953
0.0171506
0.0176432
0.0181558
0.0186699
0.0191914
0.0195608
0.0196603
0.0199027
0.0282165
0.0436411
0.0481589
0.0469082
0.0472611
0.0486191
0.050275
0.0517552
0.0528132
0.0533538
0.0533693
0.0527023
0.051442
0.0497046
0.0476179
0.0453145
0.0429239
0.0405634
0.0383312
0.0363024
0.034529
0.0330441
0.0318712
0.0310351
0.0305757
0.0305602
0.0310952
0.0323361
0.0344989
0.0378855
0.0429023
0.0500239
0.0597543
0.0728583
0.0912869
)
;
    }
    rightWall
    {
        type            kqRWallFunction;
        value           nonuniform List<scalar> 
50
(
0.00545569
0.00910827
0.011428
0.0132539
0.0147469
0.0160053
0.017093
0.0180567
0.0194369
0.0209134
0.0222623
0.0235408
0.0248107
0.0261074
0.0274382
0.028788
0.0301204
0.0313862
0.0325315
0.0335112
0.0342968
0.03488
0.0352701
0.0354874
0.0355529
0.0354796
0.0352682
0.0349078
0.0343829
0.0336845
0.0328212
0.0318238
0.0307401
0.02967
0.028781
0.0280405
0.0274184
0.0268887
0.0264306
0.0260295
0.0256758
0.0253637
0.0250904
0.0248546
0.0246555
0.0244922
0.0243629
0.0242638
0.0241925
0.0241277
)
;
    }
    lowerWall
    {
        type            kqRWallFunction;
        value           nonuniform List<scalar> 
62
(
0.00613573
0.0112095
0.0173994
0.02246
0.0265663
0.0302807
0.0338334
0.0373315
0.040795
0.0441817
0.0474032
0.0503351
0.0528247
0.054695
0.0557439
0.0556722
0.0546675
0.052766
0.049804
0.0458919
0.0412595
0.0349733
0.0271075
0.0271075
0.0532938
0.0776249
0.100462
0.119016
0.137294
0.156826
0.180773
0.227516
0.199638
0.167582
0.151052
0.00701942
0.0184328
0.0268757
0.0349374
0.0432372
0.0523639
0.063932
0.0872683
0.00701942
0.0155971
0.0200778
0.0228502
0.0246696
0.0252993
0.0248306
0.023664
0.0220663
0.0203892
0.0188849
0.0175061
0.0162392
0.015059
0.0139012
0.0125283
0.0107147
0.00812822
0.00545569
)
;
    }
    atmosphere
    {
        type            inletOutlet;
        inletValue      uniform 0.1;
        value           nonuniform List<scalar> 
46
(
0.1
0.1
0.1
0.1
0.1
0.1
0.1
0.1
0.1
0.1
0.1
0.1
0.1
0.1
0.1
0.1
0.1
0.1
0.1
0.1
0.1
0.1
0.1
0.1
0.1
0.1
0.1
0.1
0.100564
0.098803
0.0978774
0.0970627
0.0959719
0.0944474
0.0924488
0.0900039
0.0871753
0.0840266
0.0805897
0.0768352
0.0726478
0.0677968
0.0618768
0.0541371
0.042811
0.0241277
)
;
    }
    defaultFaces
    {
        type            empty;
    }
}


// ************************************************************************* //
