/*--------------------------------*- C++ -*----------------------------------*\
| =========                 |                                                 |
| \\      /  F ield         | OpenFOAM: The Open Source CFD Toolbox           |
|  \\    /   O peration     | Version:  v2012                                 |
|   \\  /    A nd           | Website:  www.openfoam.com                      |
|    \\/     M anipulation  |                                                 |
\*---------------------------------------------------------------------------*/
FoamFile
{
    version     2.0;
    format      ascii;
    class       volScalarField;
    location    "0.3";
    object      p_rgh;
}
// * * * * * * * * * * * * * * * * * * * * * * * * * * * * * * * * * * * * * //

dimensions      [1 -1 -2 0 0 0 0];


internalField   nonuniform List<scalar> 
2268
(
1295.5
1300.8
1313.25
1327.66
1339.12
1347.41
1352.99
1356.59
1358.87
1360.42
1361.85
1363.9
1367.67
1374.76
1387.68
1410.63
1448.15
1504.32
1579
1661.67
1732.65
1752.21
1801.53
1294.38
1297.78
1308.4
1320.6
1330.76
1338.24
1343.3
1346.51
1348.46
1349.72
1350.97
1353.04
1357.11
1364.91
1378.96
1402.75
1441.71
1500.35
1580.16
1670.99
1748.88
1760.18
1802.43
1292.52
1296.14
1304.46
1314.05
1322.18
1328.16
1332.09
1334.38
1335.53
1336.14
1336.91
1338.77
1343.03
1351.51
1366.8
1392.32
1432.79
1492.62
1573.61
1666.82
1751.24
1773.71
1824.63
1290.07
1294.64
1301.6
1309.05
1315.19
1319.49
1322.02
1323.1
1323.19
1322.88
1322.9
1324.26
1328.31
1336.96
1352.77
1378.96
1419.56
1478.43
1557.06
1647.98
1735.28
1779.27
1854.3
1286.96
1292.65
1298.86
1304.69
1309.16
1311.9
1313.04
1312.88
1311.83
1310.49
1309.6
1310.2
1313.68
1321.92
1337.39
1363.08
1402.39
1458.48
1532.47
1618.7
1704.88
1770.65
1869.44
1283.21
1289.86
1295.57
1300.08
1303.1
1304.45
1304.29
1302.92
1300.74
1298.32
1296.42
1296.09
1298.69
1306.07
1320.56
1344.84
1381.75
1433.73
1501.45
1580.62
1660.38
1742.55
1851.14
1278.82
1286.23
1291.46
1294.77
1296.5
1296.58
1295.21
1292.68
1289.39
1285.88
1282.9
1281.48
1282.98
1289.15
1302.17
1324.39
1358.07
1404.9
1464.82
1533.8
1599.85
1686.6
1768.29
1273.82
1281.73
1286.43
1288.59
1289.13
1288.09
1285.63
1282.04
1277.7
1273.12
1269.05
1266.47
1266.69
1271.38
1282.52
1302.11
1331.79
1372.46
1422.91
1477.67
1521.33
1580.31
1575.92
10.787
10.7933
10.8094
10.8253
10.8408
10.8544
10.8623
10.8627
10.8545
10.8385
10.8166
10.7908
10.7638
10.7374
10.7134
10.6934
10.6784
10.669
10.6651
10.7864
10.7948
10.8111
10.8248
10.8382
10.8507
10.8581
10.8586
10.8509
10.8356
10.8145
10.7895
10.763
10.737
10.7132
10.6933
10.6782
10.6687
10.6645
10.781
10.7914
10.811
10.824
10.8356
10.847
10.8539
10.8544
10.8472
10.8325
10.8122
10.7879
10.7619
10.7361
10.7123
10.6922
10.6769
10.6672
10.6628
10.7681
10.7822
10.8089
10.823
10.8339
10.8448
10.8515
10.8521
10.8452
10.8307
10.8105
10.7865
10.7604
10.7344
10.7103
10.6899
10.6743
10.6643
10.66
10.7437
10.7669
10.8067
10.8227
10.8334
10.8445
10.8516
10.8522
10.8452
10.8303
10.8097
10.7852
10.7585
10.7319
10.7072
10.6863
10.6703
10.6603
10.6561
10.7023
10.7437
10.8068
10.8243
10.8342
10.8459
10.8537
10.8545
10.8472
10.8315
10.8097
10.784
10.7562
10.7286
10.703
10.6815
10.6651
10.6549
10.6509
10.6358
10.7087
10.8133
10.8287
10.836
10.8485
10.8576
10.859
10.8512
10.8342
10.8105
10.7829
10.7535
10.7245
10.6978
10.6755
10.6586
10.6483
10.6445
10.5463
10.6757
10.8367
10.8315
10.8341
10.85
10.8621
10.8646
10.8563
10.8378
10.8119
10.7819
10.7504
10.7197
10.6917
10.6684
10.6508
10.6403
10.6367
1265.08
1273.14
1276.92
1277.41
1276.25
1273.65
1269.71
1264.67
1258.86
1252.75
1247.02
1242.59
1240.66
1242.73
1250.43
1265.16
1287.67
1317.49
1351.24
1379.44
1378.76
1307.15
946.288
1250.72
1258.37
1260.22
1258.44
1255.18
1250.66
1244.92
1238.09
1230.42
1222.28
1214.23
1207.03
1201.74
1199.72
1202.27
1210.11
1223.02
1239.49
1255.25
1260.08
1231.69
1136.65
975.235
1234.66
1240.93
1240.07
1235.85
1230.46
1223.97
1216.31
1207.53
1197.74
1187.22
1176.38
1165.81
1156.48
1149.88
1147.34
1148.98
1153.87
1160.78
1167.03
1166.85
1149.8
1105.13
1052.57
1217.08
1220.75
1216.66
1209.45
1201.25
1192.14
1182.06
1170.86
1158.58
1145.48
1131.86
1117.98
1104.71
1094.03
1087.92
1085.57
1085.06
1085.54
1087.07
1087.67
1082.93
1065.51
1035.89
1200.9
1198.27
1185.24
1174.57
1164.04
1152.2
1138.35
1121.02
1097.86
1067.88
1028.39
973.48
899.487
821.139
773.205
763.56
772.443
802.75
862.296
968.918
1053.72
1051.31
1044.22
1020.38
793.167
675.601
652.673
634.846
606.237
567.117
509.48
439.742
363.168
282.268
197.023
116.491
60.6995
39.7372
39.0159
43.0994
64.5367
100.3
146.405
235.112
411.15
660.984
136.107
33.2794
-1.23134
-1.58922
-1.67168
-1.73534
-1.78616
-1.77489
-1.76941
-1.77885
-1.803
-1.85217
-1.92172
-1.97498
-2.02239
-2.11909
-2.29263
-2.56039
-2.91588
-3.30699
-3.67187
-3.96718
10.7618
-1.86327
-1.50821
-1.46674
-1.51388
-1.51565
-1.50581
-1.50575
-1.52139
-1.54973
-1.58899
-1.64317
-1.71484
-1.80356
-1.90377
-2.01087
-2.12853
-2.2606
-2.41026
-2.57243
-2.72973
-2.85991
-2.96292
-3.26992
-1.67963
-1.6307
-1.5629
-1.56352
-1.57385
-1.58311
-1.60037
-1.62899
-1.66788
-1.71739
-1.77941
-1.85529
-1.94453
-2.04501
-2.15523
-2.2702
-2.40813
-2.57028
-2.75628
-2.96001
-3.15758
-3.31964
-3.4321
-1.69727
-1.64462
-1.60999
-1.6094
-1.62626
-1.64722
-1.67426
-1.70977
-1.75491
-1.81083
-1.87877
-1.95935
-2.05195
-2.15505
-2.2574
-2.38141
-2.52452
-2.68495
-2.86618
-3.06334
-3.25676
-3.44457
-3.63887
-1.70067
-1.66928
-1.65447
-1.65724
-1.67419
-1.69915
-1.73173
-1.77323
-1.82474
-1.88712
-1.96099
-2.04639
-2.14266
-2.2478
-2.35127
-2.47806
-2.62138
-2.78722
-2.95893
-3.14022
-3.33126
-3.52859
-3.73681
-1.72394
-1.70585
-1.69883
-1.70515
-1.72348
-1.75111
-1.78752
-1.83347
-1.88975
-1.9569
-2.03497
-2.12354
-2.22199
-2.32942
-2.44483
-2.57333
-2.71376
-2.86616
-3.03223
-3.21153
-3.40375
-3.60651
-3.82129
-1.74653
-1.74157
-1.73982
-1.74909
-1.7692
-1.7989
-1.83806
-1.88721
-1.94689
-2.01725
-2.0979
-2.18812
-2.28727
-2.39507
-2.5119
-2.63889
-2.7775
-2.92908
-3.0945
-3.27447
-3.47022
-3.68055
-3.90592
-1.76673
-1.77041
-1.77337
-1.7856
-1.80758
-1.83906
-1.88028
-1.93173
-1.9937
-2.06602
-2.148
-2.23872
-2.3377
-2.44493
-2.56126
-2.68808
-2.82694
-2.97924
-3.14635
-3.32997
-3.53278
-3.7551
-3.99738
-1.78193
-1.7907
-1.79758
-1.81256
-1.83638
-1.86946
-1.91232
-1.96545
-2.02894
-2.10233
-2.18474
-2.27527
-2.37356
-2.48009
-2.59614
-2.72337
-2.86349
-3.01811
-3.18913
-3.37929
-3.59268
-3.83121
-4.09602
-1.79014
-1.80142
-1.81155
-1.82905
-1.85461
-1.88911
-1.9333
-1.98764
-2.05208
-2.12594
-2.20823
-2.29814
-2.39562
-2.50158
-2.61768
-2.74585
-2.88796
-3.04591
-3.22221
-3.42065
-3.64665
-3.90363
-4.19401
-1.79029
-1.80276
-1.81514
-1.83498
-1.86211
-1.89779
-1.94298
-1.99815
-2.0631
-2.137
-2.21883
-2.30793
-2.4046
-2.51015
-2.62654
-2.75585
-2.90009
-3.06145
-3.24307
-3.44972
-3.68788
-3.96218
-4.27693
-1.78215
-1.79392
-1.80959
-1.83102
-1.85927
-1.8958
-1.94165
-1.99727
-2.06234
-2.13595
-2.21705
-2.30521
-2.40105
-2.50621
-2.62284
-2.75306
-2.89888
-3.06275
-3.24838
-3.46126
-3.7084
-3.99495
-4.32688
-1.76533
-1.77746
-1.79496
-1.81764
-1.84668
-1.88371
-1.92986
-1.98555
-2.05036
-2.1233
-2.20341
-2.29042
-2.38525
-2.48979
-2.60627
-2.73668
-2.88296
-3.04768
-3.23497
-3.45065
-3.70164
-3.99258
-4.32965
-1.74098
-1.75352
-1.7721
-1.79558
-1.82504
-1.86223
-1.9083
-1.96362
-2.02775
-2.09965
-2.17839
-2.2639
-2.35732
-2.4607
-2.57623
-2.70573
-2.85094
-3.01444
-3.20051
-3.41488
-3.6639
-3.95103
-4.28169
-1.70993
-1.72266
-1.74177
-1.76562
-1.79515
-1.83213
-1.87771
-1.93224
-1.99524
-2.06565
-2.14261
-2.22614
-2.31755
-2.41892
-2.53237
-2.65948
-2.80175
-2.96168
-3.14348
-3.35259
-3.59427
-3.87044
-4.18588
-1.6729
-1.68552
-1.7047
-1.72853
-1.75778
-1.79419
-1.83886
-1.89215
-1.95355
-2.02202
-2.09672
-2.17774
-2.26639
-2.36477
-2.47482
-2.59787
-2.73518
-2.88908
-3.06356
-3.26354
-3.49324
-3.75302
-4.04763
-1.63048
-1.64273
-1.66159
-1.68504
-1.7137
-1.74917
-1.79254
-1.84413
-1.90345
-1.96951
-2.04145
-2.11936
-2.20449
-2.29882
-2.40411
-2.52145
-2.65186
-2.79742
-2.96175
-3.14918
-3.36295
-3.60252
-3.87268
-1.58312
-1.59479
-1.61303
-1.63582
-1.6636
-1.69782
-1.73948
-1.78892
-1.8457
-1.90886
-1.97755
-2.05177
-2.13263
-2.22191
-2.32117
-2.43129
-2.55307
-2.68827
-2.84005
-3.01206
-3.20673
-3.42318
-3.66615
-1.5312
-1.54217
-1.55955
-1.58145
-1.60812
-1.64081
-1.68043
-1.72731
-1.78109
-1.84088
-1.90583
-1.97581
-2.05173
-2.13509
-2.22722
-2.32883
-2.44053
-2.56375
-2.70109
-2.85549
-3.02867
-3.21954
-3.43238
-1.47506
-1.48527
-1.50163
-1.52248
-1.54787
-1.57882
-1.61612
-1.66008
-1.71045
-1.76642
-1.82716
-1.89242
-1.96283
-2.03959
-2.12375
-2.21585
-2.31632
-2.42627
-2.54776
-2.68304
-2.83313
-2.99664
-3.17684
-1.41506
-1.42448
-1.43975
-1.45944
-1.48344
-1.5125
-1.54726
-1.58804
-1.63463
-1.68638
-1.74249
-1.8026
-1.86708
-1.93676
-2.01243
-2.09441
-2.18292
-2.27875
-2.38345
-2.49865
-2.62482
-2.76017
-2.90643
-1.35156
-1.3602
-1.37436
-1.39283
-1.41536
-1.44245
-1.47456
-1.51195
-1.55452
-1.60171
-1.65283
-1.70743
-1.76563
-1.82796
-1.89491
-1.96656
-2.04292
-2.1244
-2.21205
-2.30693
-2.40912
-2.51659
-2.62945
-1.28492
-1.29283
-1.30589
-1.32311
-1.34414
-1.36922
-1.39862
-1.43255
-1.47093
-1.51334
-1.55919
-1.60799
-1.65968
-1.7145
-1.77268
-1.8341
-1.89854
-1.96604
-2.03714
-2.11237
-2.19148
-2.27244
-2.35415
-1.2155
-1.22273
-1.23471
-1.25069
-1.27019
-1.29325
-1.31996
-1.35042
-1.38458
-1.42213
-1.46255
-1.50538
-1.55042
-1.5977
-1.64719
-1.69865
-1.75163
-1.8059
-1.8615
-1.9185
-1.97636
-2.03321
-2.08726
-1.14365
-1.15025
-1.16119
-1.17592
-1.19387
-1.21492
-1.23898
-1.26605
-1.29605
-1.32876
-1.36375
-1.4006
-1.43901
-1.47883
-1.5199
-1.5618
-1.60397
-1.64595
-1.68743
-1.72807
-1.76712
-1.80293
-1.83345
-1.06967
-1.0757
-1.08563
-1.09911
-1.1155
-1.13453
-1.156
-1.17978
-1.20578
-1.2338
-1.2635
-1.29448
-1.32643
-1.35907
-1.3921
-1.42503
-1.4572
-1.48801
-1.51691
-1.54329
-1.56625
-1.58438
-1.5956
-0.993839
-0.999417
-1.00836
-1.02059
-1.03537
-1.05237
-1.0713
-1.09193
-1.11413
-1.13769
-1.16233
-1.18771
-1.21349
-1.23934
-1.26487
-1.28954
-1.31266
-1.33355
-1.35153
-1.36582
-1.37549
-1.37931
-1.37533
-0.916501
-0.921763
-0.929721
-0.940674
-0.953788
-0.96873
-0.98515
-1.00276
-1.02136
-1.04073
-1.06063
-1.08076
-1.10078
-1.12034
-1.13901
-1.15622
-1.17132
-1.1836
-1.19236
-1.19676
-1.19587
-1.18867
-1.17335
-0.838086
-0.843166
-0.850058
-0.859712
-0.871089
-0.883913
-0.89783
-0.912512
-0.927697
-0.943158
-0.95866
-0.973937
-0.988678
-1.00253
-1.01505
-1.0257
-1.03384
-1.03884
-1.04003
-1.03664
-1.02778
-1.01264
-0.989642
-0.758625
-0.763992
-0.76971
-0.778056
-0.787612
-0.798239
-0.809632
-0.821444
-0.833371
-0.845161
-0.856585
-0.867412
-0.877371
-0.886134
-0.893285
-0.8983
-0.900603
-0.899627
-0.894818
-0.885525
-0.871022
-0.850661
-0.823169
-0.677235
-0.684453
-0.688899
-0.69595
-0.703589
-0.711932
-0.720771
-0.729754
-0.738546
-0.746871
-0.754505
-0.761255
-0.76691
-0.771199
-0.773755
-0.774097
-0.771696
-0.766051
-0.756711
-0.743192
-0.724971
-0.701618
-0.672169
-0.593809
-0.604992
-0.607667
-0.613391
-0.619009
-0.624978
-0.631227
-0.637412
-0.643175
-0.648222
-0.652336
-0.655364
-0.657168
-0.657564
-0.656268
-0.652864
-0.646868
-0.637818
-0.62534
-0.609096
-0.588777
-0.564203
-0.534729
-0.511478
-0.527837
-0.526841
-0.531012
-0.534475
-0.537931
-0.541512
-0.544897
-0.547714
-0.549659
-0.550523
-0.550188
-0.548589
-0.545638
-0.541151
-0.534805
-0.526175
-0.514832
-0.500439
-0.48276
-0.461677
-0.437255
-0.409137
-0.430205
-0.459664
-0.450373
-0.45161
-0.45253
-0.453253
-0.454036
-0.454594
-0.454546
-0.453587
-0.451516
-0.448241
-0.443736
-0.437985
-0.430894
-0.422233
-0.411662
-0.398802
-0.38335
-0.36514
-0.344195
-0.320761
-0.294711
-0.332367
-0.407166
-0.380321
-0.374287
-0.371687
-0.369468
-0.367398
-0.365174
-0.362427
-0.358869
-0.354309
-0.348657
-0.341887
-0.333992
-0.324922
-0.314535
-0.302599
-0.288845
-0.273045
-0.255094
-0.235063
-0.213241
-0.190106
-0.196282
-0.346786
-0.2933
-0.277863
-0.271082
-0.265785
-0.260866
-0.25587
-0.25046
-0.244412
-0.237584
-0.229884
-0.221261
-0.211682
-0.201119
-0.189529
-0.176854
-0.16303
-0.148013
-0.131802
-0.114437
-0.0959978
-0.076416
245.155
328.16
473.098
309.122
814.78
775.652
720.846
641.963
990.428
934.075
881.67
844.417
998.77
976.2
961.605
951.416
1033.52
1031.45
1032.1
1031.6
921.966
1136.57
1138.77
1137.75
52.3467
121.348
215.292
334.082
-3.74151
-4.03983
-4.38504
-4.69475
-3.57426
-3.67334
-3.81635
-4.01097
-3.82885
-3.96219
-4.10001
-4.2091
-3.90392
-4.02713
-4.16966
-4.30538
-3.99283
-4.1222
-4.27429
-4.42097
-4.08925
-4.23029
-4.39742
-4.56054
-4.19976
-4.357
-4.54252
-4.72714
-4.32323
-4.49992
-4.70662
-4.91659
-4.44854
-4.64532
-4.87366
-5.11096
-4.55788
-4.77399
-5.02365
-5.28681
-4.6275
-4.85871
-5.12619
-5.39958
-4.63526
-4.86921
-5.1374
-5.42534
-4.57898
-4.80272
-5.05532
-5.32151
-4.46735
-4.67768
-4.91181
-5.15747
-4.30949
-4.50499
-4.7218
-4.94772
-4.11209
-4.29069
-4.48955
-4.69746
-3.8809
-4.04118
-4.22073
-4.4089
-3.61931
-3.75817
-3.91341
-4.07591
-3.33286
-3.44718
-3.57365
-3.70494
-3.02963
-3.11775
-3.21318
-3.31089
-2.72013
-2.7825
-2.84794
-2.91361
-2.41493
-2.45383
-2.49258
-2.5304
-2.12234
-2.14133
-2.1577
-2.17267
-1.84771
-1.85109
-1.85008
-1.84739
-1.59372
-1.58569
-1.57244
-1.55726
-1.36129
-1.34524
-1.32403
-1.301
-1.15064
-1.12928
-1.10329
-1.076
-0.961632
-0.937305
-0.908968
-0.879883
-0.792883
-0.767669
-0.73892
-0.709749
-0.641861
-0.617356
-0.589734
-0.56182
-0.505926
-0.483206
-0.457811
-0.432188
-0.382793
-0.362552
-0.340147
-0.317543
-0.271181
-0.253827
-0.234904
-0.215593
-0.171812
-0.158257
-0.142681
-0.124438
-0.0598088
-0.0478388
-0.0337324
-0.0182736
10.1046
10.833
10.9213
10.8242
10.8197
10.8485
10.87
10.8754
10.8663
10.8452
10.8154
10.781
10.7455
10.7115
10.681
10.6556
10.6368
10.6258
10.6222
502.547
60.3275
10.9995
10.9115
10.8384
10.8667
10.893
10.9002
10.8887
10.8618
10.8244
10.7817
10.7382
10.6974
10.6616
10.6323
10.611
10.599
10.5954
786.034
680.958
297.027
11.5441
11.0883
11.0044
10.9601
10.9411
10.92
10.8852
10.8375
10.783
10.7282
10.6779
10.6348
10.6005
10.5761
10.563
10.5597
923.535
891.53
865.256
543.689
43.9155
11.6582
11.1529
11.0325
10.9635
10.9136
10.8533
10.7839
10.7142
10.6512
10.5986
10.5579
10.53
10.5158
10.5129
1026.74
1012.21
1005.21
1000.54
637.717
63.9435
12.7112
11.2976
11.0461
10.9464
10.8686
10.7817
10.6939
10.6149
10.5504
10.5021
10.4702
10.455
10.4528
1137.27
1123.44
1116.77
1120.77
1124.7
569.555
39.2989
13.3443
11.3558
11.0044
10.8808
10.7717
10.6631
10.5657
10.4871
10.4299
10.3937
10.3778
10.3765
610.376
1222.64
1243.27
1230.24
1232.58
1149.43
346.224
19.9884
12.6641
11.2034
10.8977
10.7478
10.6153
10.4982
10.4046
10.3377
10.2972
10.2808
10.2809
0.334074
95.397
516.059
1306.65
1338.32
1327.82
857.119
95.0533
15.4938
11.7256
10.9403
10.6995
10.5407
10.4056
10.2978
10.2217
10.1771
10.1608
10.1626
-4.10971
-4.7706
-5.16274
436.401
1356.26
1410.12
1238.75
303.145
20.1185
12.6288
11.0212
10.616
10.4273
10.2794
10.161
10.0777
10.0302
10.0145
10.0184
-4.35232
-4.55347
-4.81433
-5.19931
887.818
1485.49
1402.99
557.402
31.4024
13.6266
11.0823
10.4816
10.2643
10.1114
9.98871
9.90205
9.8535
9.83929
9.84554
-4.51069
-4.74572
-4.87184
-5.15715
360.361
1429.83
1414.54
880.334
73.0053
14.5901
11.0837
10.2861
10.0468
9.89708
9.7772
9.69212
9.6452
9.63348
9.64231
-4.64835
-4.91179
-4.98409
-5.10212
66.7249
1249.47
1479.91
996.464
98.636
15.0825
10.9177
10.0096
9.772
9.63508
9.52536
9.4471
9.40471
9.39658
9.40812
-4.81375
-5.12265
-5.24458
-5.1884
-5.20939
1041.17
1516.99
987.036
100.63
14.6772
10.5163
9.64809
9.44391
9.32853
9.23536
9.16839
9.13312
9.12954
9.14383
-5.00304
-5.36505
-5.54963
-5.4639
-5.61704
936.052
1504.45
966.274
93.1997
13.7772
9.94811
9.22695
9.07319
8.98485
8.9123
8.85945
8.83306
8.83465
8.85161
-5.23304
-5.64692
-5.87001
-5.7887
7.94284
987.596
1500.96
921.626
74.968
12.5522
9.29297
8.77411
8.67349
8.61373
8.563
8.52519
8.50836
8.51527
8.53462
-5.50598
-5.97755
-6.21346
-6.11857
43.418
1071.99
1453.14
698.312
38.9351
10.8569
8.60328
8.30818
8.25676
8.22502
8.19474
8.17121
8.16358
8.17537
8.19658
-5.73054
-6.30972
-6.68065
-6.39018
95.6948
1107.62
839.681
216.066
26.4206
9.17653
7.97725
7.85218
7.83798
7.82841
7.81456
7.80307
7.80336
7.81911
7.84145
-5.88759
-6.63786
-7.27732
23.5874
415.591
622.386
122.082
23.1776
14.9964
8.36286
7.48643
7.4192
7.42739
7.43099
7.42809
7.42546
7.4318
7.45029
7.47299
-5.90869
-6.77915
-7.21451
157.644
748.105
754.156
113.211
12.6841
8.38526
7.20797
7.00936
7.00976
7.02744
7.03602
7.03866
7.04153
7.05194
7.07196
7.09439
-5.78398
-6.60589
-6.55942
42.1566
799.945
795.948
613.028
42.3944
7.51382
6.75766
6.62913
6.62532
6.6383
6.64415
6.64756
6.65294
6.66568
6.68626
6.70802
-5.58155
-6.22691
-6.41957
-6.80982
737.478
832.751
834.789
85.8767
7.67639
6.60585
6.30649
6.25778
6.25431
6.25276
6.25406
6.26014
6.27421
6.2948
6.31565
-5.33979
-5.90106
-6.21094
-5.80995
197.863
873.215
869.232
705.462
53.8036
6.81204
5.97409
5.88997
5.86323
5.85528
5.85546
5.86272
5.87837
5.89903
5.91893
-5.05726
-5.55458
-5.79344
-5.6317
-4.95132
741.676
904.621
894.971
225.965
7.27151
5.67894
5.48191
5.44657
5.44226
5.44792
5.4601
5.47921
5.50076
5.52001
-4.73664
-5.22579
-5.68677
-5.82555
-3.05866
83.6941
781.752
903.442
469.653
9.57358
5.10566
4.9983
4.98875
5.00794
5.0299
5.0531
5.07868
5.10243
5.1219
-4.36076
-4.81556
-5.30341
-5.47864
-2.18541
-1.89437
135.371
326.081
320.951
33.7059
4.31191
4.43352
4.49814
4.55835
4.60583
4.64554
4.68021
4.70711
4.72873
-3.93468
-4.30962
-4.74219
-5.18323
-4.31309
0.885199
0.811756
9.15174
26.7434
32.1348
4.60311
3.93068
4.00412
4.10824
4.18517
4.24385
4.28857
4.31772
4.34593
-3.48061
-3.75032
-4.05809
-4.37778
-4.02707
-2.54825
-2.70875
-0.639624
1.56305
3.7729
3.52046
3.33013
3.51604
3.66987
3.7773
3.85459
3.9092
3.94198
3.97294
-3.02681
-3.19437
-3.36638
-3.52356
-3.56052
-2.83029
-2.24881
-1.62325
0.0365579
1.08082
2.23907
2.75061
3.05869
3.25688
3.39028
3.48301
3.54587
3.58217
3.61294
-2.5957
-2.68031
-2.74353
-2.76623
-2.69476
-2.346
-1.82458
-1.07538
0.0828268
1.04603
1.8529
2.34034
2.66629
2.88266
3.03084
3.13306
3.20132
3.24044
3.26833
-2.20009
-2.22333
-2.21202
-2.1479
-1.99964
-1.71479
-1.258
-0.590235
0.2379
0.998808
1.60822
2.03387
2.33712
2.55064
2.70141
2.80659
2.87696
2.91747
2.9412
-1.8462
-1.82698
-1.76976
-1.65904
-1.47512
-1.19282
-0.78948
-0.259827
0.349964
0.933266
1.41602
1.78104
2.05394
2.25445
2.39991
2.50315
2.57271
2.61292
2.63216
-1.53552
-1.48862
-1.40556
-1.27448
-1.08291
-0.816363
-0.467581
-0.0439583
0.420762
0.869324
1.25534
1.5644
1.80487
1.98735
2.12301
2.22095
2.2874
2.32581
2.34067
-1.26602
-1.20267
-1.10748
-0.972716
-0.78828
-0.548716
-0.253195
0.0885861
0.4525
0.80429
1.11541
1.37433
1.58218
1.74429
1.86749
1.95775
2.01934
2.05481
2.0657
-1.03388
-0.962558
-0.86421
-0.73355
-0.565082
-0.356383
-0.10947
0.166843
0.455655
0.735266
0.987292
1.20256
1.37963
1.52087
1.63017
1.71119
1.7667
1.79848
1.80595
-0.834893
-0.761834
-0.666541
-0.545584
-0.396334
-0.218278
-0.0141213
0.208977
0.439209
0.662362
0.866199
1.04363
1.19242
1.31323
1.40803
1.47892
1.52764
1.55533
1.55996
-0.664687
-0.594288
-0.506219
-0.398373
-0.26975
-0.12075
0.0460385
0.225094
0.408139
0.585657
0.749331
0.893819
1.0168
1.11802
1.19831
1.25877
1.30037
1.32383
1.32615
-0.518754
-0.454078
-0.376102
-0.283485
-0.175954
-0.0541608
0.0797053
0.221506
0.365442
0.505054
0.634626
0.750194
0.849675
0.932414
0.998592
1.04869
1.08318
1.10247
1.10295
-0.392762
-0.336007
-0.270188
-0.194157
-0.107718
-0.0114256
0.0930062
0.20255
0.313167
0.420468
0.520524
0.610449
0.688528
0.754001
0.806727
0.846816
0.874409
0.88972
0.888776
-0.282895
-0.235498
-0.183567
-0.125111
-0.0595903
0.0126499
0.0903305
0.171294
0.252781
0.331857
0.405872
0.472799
0.531319
0.580738
0.620784
0.651368
0.672419
0.684056
0.68213
-0.184992
-0.1469
-0.111701
-0.0721047
-0.0274295
0.0218628
0.0747848
0.129834
0.185205
0.239032
0.28963
0.335664
0.376212
0.410721
0.438905
0.46058
0.475545
0.483876
0.481457
-0.0915469
-0.0609685
-0.0496781
-0.0313454
-0.00777227
0.0192114
0.0486538
0.0795387
0.110811
0.141444
0.170521
0.197294
0.221213
0.241907
0.259138
0.2727
0.282327
0.288058
0.285972
0.00633008
0.00976903
-0.00297112
-0.00319226
0.0013348
0.00786235
0.0155983
0.0240714
0.0329189
0.0418452
0.0505943
0.058946
0.0667177
0.0737641
0.0799674
0.0852007
0.0892626
0.092205
0.0919619
)
;

boundaryField
{
    leftWall
    {
        type            fixedFluxPressure;
        gradient        uniform 0;
        value           nonuniform List<scalar> 
50
(
1295.5
1294.38
1292.52
1290.07
1286.96
1283.21
1278.82
1273.82
1265.08
1250.72
1234.66
1217.08
1200.9
1020.38
136.107
-1.86327
-1.67963
-1.69727
-1.70067
-1.72394
-1.74653
-1.76673
-1.78193
-1.79014
-1.79029
-1.78215
-1.76533
-1.74098
-1.70993
-1.6729
-1.63048
-1.58312
-1.5312
-1.47506
-1.41506
-1.35156
-1.28492
-1.2155
-1.14365
-1.06967
-0.993839
-0.916501
-0.838086
-0.758625
-0.677235
-0.593809
-0.511478
-0.430205
-0.332367
-0.196282
)
;
    }
    rightWall
    {
        type            fixedFluxPressure;
        gradient        uniform 0;
        value           nonuniform List<scalar> 
50
(
10.6651
10.6645
10.6628
10.66
10.6561
10.6509
10.6445
10.6367
10.6222
10.5954
10.5597
10.5129
10.4528
10.3765
10.2809
10.1626
10.0184
9.84554
9.64231
9.40812
9.14383
8.85161
8.53462
8.19658
7.84145
7.47299
7.09439
6.70802
6.31565
5.91893
5.52001
5.1219
4.72873
4.34593
3.97294
3.61294
3.26833
2.9412
2.63216
2.34067
2.0657
1.80595
1.55996
1.32615
1.10295
0.888776
0.68213
0.481457
0.285972
0.0919619
)
;
    }
    lowerWall
    {
        type            fixedFluxPressure;
        gradient        uniform 0;
        value           nonuniform List<scalar> 
62
(
1295.5
1300.8
1313.25
1327.66
1339.12
1347.41
1352.99
1356.59
1358.87
1360.42
1361.85
1363.9
1367.67
1374.76
1387.68
1410.63
1448.15
1504.32
1579
1661.67
1732.65
1752.21
1801.53
1801.53
1802.43
1824.63
1854.3
1869.44
1851.14
1768.29
1575.92
245.155
328.16
473.098
309.122
10.787
10.7864
10.781
10.7681
10.7437
10.7023
10.6358
10.5463
10.787
10.7933
10.8094
10.8253
10.8408
10.8544
10.8623
10.8627
10.8545
10.8385
10.8166
10.7908
10.7638
10.7374
10.7134
10.6934
10.6784
10.669
10.6651
)
;
    }
    atmosphere
    {
        type            totalPressure;
        rho             rho;
        psi             none;
        gamma           1;
        p0              uniform 0;
        value           nonuniform List<scalar> 
46
(
-0.150971
-0.233958
-0.217538
-0.209541
-0.202982
-0.196912
-0.190872
-0.184577
-0.177841
-0.170541
-0.162587
-0.153906
-0.144439
-0.134147
-0.123021
-0.111092
-0.0984383
-0.0851777
-0.0714669
-0.0574974
-0.0435139
-0.0298735
-0.0171793
-0.00913365
-0.0054812
-0.00304551
-0.00156608
-0.000283744
0
0
0
0
0
0
0
0
0
0
0
0
0
0
0
0
0
0
)
;
    }
    defaultFaces
    {
        type            empty;
    }
}


// ************************************************************************* //
