/*--------------------------------*- C++ -*----------------------------------*\
| =========                 |                                                 |
| \\      /  F ield         | OpenFOAM: The Open Source CFD Toolbox           |
|  \\    /   O peration     | Version:  v2012                                 |
|   \\  /    A nd           | Website:  www.openfoam.com                      |
|    \\/     M anipulation  |                                                 |
\*---------------------------------------------------------------------------*/
FoamFile
{
    version     2.0;
    format      ascii;
    class       volVectorField;
    location    "0.3";
    object      U;
}
// * * * * * * * * * * * * * * * * * * * * * * * * * * * * * * * * * * * * * //

dimensions      [0 1 -1 0 0 0 0];


internalField   nonuniform List<vector> 
2268
(
(-0.0478133 0.0149579 0)
(-0.0572185 -0.00519715 0)
(-0.0168903 -0.0178228 0)
(0.0382624 -0.0209929 0)
(0.0991785 -0.021113 0)
(0.159622 -0.0200549 0)
(0.217761 -0.0189062 0)
(0.273473 -0.0179768 0)
(0.327247 -0.0172696 0)
(0.379475 -0.0166866 0)
(0.430177 -0.0160881 0)
(0.478897 -0.0153005 0)
(0.524564 -0.0141001 0)
(0.565297 -0.0121475 0)
(0.597687 -0.00894822 0)
(0.61774 -0.00275314 0)
(0.61262 0.00791873 0)
(0.567149 0.0242148 0)
(0.469797 0.0448232 0)
(0.309867 0.0630576 0)
(0.112571 0.0701311 0)
(-0.161831 0.0179632 0)
(-0.103158 -0.0840629 0)
(-0.0307575 0.0333621 0)
(-0.0137422 -0.0108568 0)
(0.0275847 -0.034828 0)
(0.0816506 -0.0430593 0)
(0.140431 -0.0445621 0)
(0.199303 -0.0434554 0)
(0.256635 -0.0418101 0)
(0.312188 -0.0403403 0)
(0.366166 -0.0391409 0)
(0.418719 -0.038046 0)
(0.469714 -0.0367663 0)
(0.51861 -0.0349203 0)
(0.564334 -0.0319998 0)
(0.605099 -0.0272584 0)
(0.638185 -0.0195784 0)
(0.65931 -0.00669002 0)
(0.666448 0.0141138 0)
(0.652864 0.045103 0)
(0.605251 0.0859103 0)
(0.500148 0.128705 0)
(0.332435 0.156587 0)
(0.0553582 0.113058 0)
(0.029553 -0.0848201 0)
(-0.00681939 0.0367027 0)
(0.0151491 -0.0252827 0)
(0.0582694 -0.0566129 0)
(0.111329 -0.0681464 0)
(0.167977 -0.0704023 0)
(0.224806 -0.0690476 0)
(0.280549 -0.0668215 0)
(0.334956 -0.0647383 0)
(0.388084 -0.062955 0)
(0.439936 -0.0612381 0)
(0.490276 -0.0591614 0)
(0.538516 -0.0561508 0)
(0.583603 -0.0514386 0)
(0.623871 -0.043943 0)
(0.656887 -0.0321007 0)
(0.679081 -0.0136586 0)
(0.686991 0.0146902 0)
(0.676413 0.0565034 0)
(0.64165 0.1136 0)
(0.57053 0.179855 0)
(0.453705 0.233243 0)
(0.235145 0.197654 0)
(0.127445 -0.0248519 0)
(0.00730112 0.0297862 0)
(0.0355475 -0.0418935 0)
(0.0817305 -0.0797711 0)
(0.134771 -0.0938578 0)
(0.189907 -0.0966226 0)
(0.24496 -0.0949749 0)
(0.299142 -0.0922086 0)
(0.352296 -0.0895579 0)
(0.404421 -0.0872103 0)
(0.455429 -0.0848608 0)
(0.505015 -0.0819526 0)
(0.552569 -0.0777326 0)
(0.597074 -0.0711984 0)
(0.636992 -0.0609684 0)
(0.670155 -0.0451118 0)
(0.693554 -0.0210272 0)
(0.703833 0.0147824 0)
(0.697447 0.0661421 0)
(0.670706 0.135735 0)
(0.616886 0.219574 0)
(0.527893 0.297305 0)
(0.35534 0.285112 0)
(0.200532 0.0791265 0)
(0.0133709 0.0174621 0)
(0.0491495 -0.061783 0)
(0.0993986 -0.103996 0)
(0.15326 -0.119598 0)
(0.207501 -0.12251 0)
(0.261157 -0.120537 0)
(0.313976 -0.117328 0)
(0.365966 -0.114222 0)
(0.417121 -0.111395 0)
(0.467305 -0.108465 0)
(0.516176 -0.104757 0)
(0.563116 -0.0993586 0)
(0.607166 -0.0910661 0)
(0.646938 -0.0782453 0)
(0.680533 -0.0586672 0)
(0.705425 -0.0294385 0)
(0.718695 0.0130655 0)
(0.71742 0.0727609 0)
(0.698667 0.152648 0)
(0.657772 0.250388 0)
(0.58534 0.349913 0)
(0.444979 0.373041 0)
(0.260134 0.222658 0)
(0.0160099 0.00205432 0)
(0.0581624 -0.0845825 0)
(0.112396 -0.129327 0)
(0.167373 -0.145314 0)
(0.221082 -0.147892 0)
(0.273647 -0.145488 0)
(0.325324 -0.141889 0)
(0.376294 -0.138421 0)
(0.426575 -0.135199 0)
(0.476006 -0.131755 0)
(0.524226 -0.127304 0)
(0.57063 -0.120799 0)
(0.61433 -0.11087 0)
(0.654106 -0.0956815 0)
(0.688345 -0.0727736 0)
(0.714976 -0.0390282 0)
(0.7316 0.00926684 0)
(0.735932 0.0760436 0)
(0.725613 0.164555 0)
(0.697186 0.274154 0)
(0.639225 0.393824 0)
(0.527288 0.459719 0)
(0.317822 0.399335 0)
(0.0177222 -0.0153053 0)
(0.0644927 -0.109675 0)
(0.121857 -0.15568 0)
(0.177719 -0.171089 0)
(0.230969 -0.17288 0)
(0.282616 -0.169919 0)
(0.333327 -0.165948 0)
(0.383415 -0.162179 0)
(0.432919 -0.158622 0)
(0.481666 -0.154718 0)
(0.529285 -0.149579 0)
(0.575196 -0.142045 0)
(0.618592 -0.130615 0)
(0.658433 -0.113307 0)
(0.693414 -0.0874918 0)
(0.721917 -0.0498891 0)
(0.74209 0.00325515 0)
(0.752333 0.0758449 0)
(0.751042 0.171359 0)
(0.736121 0.290883 0)
(0.69544 0.428642 0)
(0.619702 0.54386 0)
(0.386843 0.60597 0)
(0.0194683 -0.0340457 0)
(0.0693682 -0.136476 0)
(0.128698 -0.182764 0)
(0.184926 -0.196841 0)
(0.2376 -0.1975 0)
(0.288395 -0.193876 0)
(0.338259 -0.189538 0)
(0.387574 -0.185501 0)
(0.436382 -0.181646 0)
(0.484498 -0.177314 0)
(0.531545 -0.171524 0)
(0.576968 -0.163023 0)
(0.620046 -0.150221 0)
(0.659928 -0.131045 0)
(0.695629 -0.102762 0)
(0.725986 -0.0620016 0)
(0.749714 -0.00503212 0)
(0.76594 0.0719426 0)
(0.774108 0.172432 0)
(0.774042 0.298786 0)
(0.756483 0.449592 0)
(0.726919 0.611369 0)
(0.476511 0.882341 0)
(0.00711393 0.00153318 0)
(-0.0630252 0.0229428 0)
(-0.142201 0.0169045 0)
(-0.167892 0.00363408 0)
(-0.157952 -0.00508441 0)
(-0.128742 -0.00986048 0)
(-0.0904195 -0.0114754 0)
(-0.0491875 -0.0115546 0)
(-0.00979765 -0.0103092 0)
(0.024292 -0.0084016 0)
(0.0504027 -0.00596094 0)
(0.0676487 -0.00346038 0)
(0.0760294 -0.00110248 0)
(0.076132 0.000973383 0)
(0.0689595 0.0026843 0)
(0.0561044 0.00395752 0)
(0.0394153 0.00460421 0)
(0.0211251 0.00424187 0)
(0.00558902 0.00267143 0)
(-0.0382973 0.0244359 0)
(-0.116746 0.0497544 0)
(-0.174569 0.0316634 0)
(-0.184968 0.00390766 0)
(-0.168389 -0.0131289 0)
(-0.138015 -0.0229509 0)
(-0.0995407 -0.0267616 0)
(-0.0581936 -0.0271165 0)
(-0.0188455 -0.0245993 0)
(0.0157225 -0.0202636 0)
(0.0429711 -0.0146633 0)
(0.0616676 -0.00867267 0)
(0.0716271 -0.00293055 0)
(0.0733488 0.00216345 0)
(0.0679406 0.00640431 0)
(0.0566989 0.00959238 0)
(0.0413496 0.0114502 0)
(0.0239561 0.0113866 0)
(0.00737275 0.00882225 0)
(-0.0725184 0.0664199 0)
(-0.152097 0.0757111 0)
(-0.189242 0.0412553 0)
(-0.19218 0.00114865 0)
(-0.171936 -0.0230415 0)
(-0.140346 -0.0370658 0)
(-0.101816 -0.0428152 0)
(-0.0608064 -0.0433244 0)
(-0.0219961 -0.0395357 0)
(0.012211 -0.0328007 0)
(0.0394963 -0.024166 0)
(0.0585601 -0.0147419 0)
(0.0691647 -0.00557441 0)
(0.0716298 0.00266484 0)
(0.0669891 0.00952575 0)
(0.0566494 0.0147162 0)
(0.0422591 0.0178694 0)
(0.0257049 0.0183347 0)
(0.00882338 0.0155815 0)
(-0.100733 0.121186 0)
(-0.183636 0.100061 0)
(-0.204068 0.0463955 0)
(-0.198749 -0.00393569 0)
(-0.174197 -0.0342312 0)
(-0.140846 -0.0520715 0)
(-0.101587 -0.0595176 0)
(-0.0604426 -0.0599986 0)
(-0.021785 -0.0548297 0)
(0.0121322 -0.0456391 0)
(0.0392234 -0.0339211 0)
(0.0582503 -0.0210437 0)
(0.068999 -0.0084098 0)
(0.0717577 0.00301549 0)
(0.0674866 0.0125656 0)
(0.0575845 0.019807 0)
(0.0435979 0.0243296 0)
(0.0272901 0.0255424 0)
(0.00994724 0.0232167 0)
(-0.128959 0.188351 0)
(-0.21656 0.122551 0)
(-0.219683 0.0457718 0)
(-0.204392 -0.0119809 0)
(-0.175308 -0.0469398 0)
(-0.139927 -0.0679472 0)
(-0.0993998 -0.0768516 0)
(-0.0575913 -0.0770804 0)
(-0.0186511 -0.0703593 0)
(0.015172 -0.0585982 0)
(0.0419963 -0.0437126 0)
(0.0607216 -0.0273753 0)
(0.0712107 -0.0112791 0)
(0.0738107 0.00332775 0)
(0.069451 0.0155666 0)
(0.0594972 0.0248717 0)
(0.0453943 0.0308101 0)
(0.0288193 0.0329232 0)
(0.0107747 0.0313535 0)
(-0.161067 0.269355 0)
(-0.251021 0.141327 0)
(-0.233483 0.0375829 0)
(-0.206498 -0.0225556 0)
(-0.173924 -0.0606295 0)
(-0.136983 -0.0844076 0)
(-0.0950423 -0.0946073 0)
(-0.0521844 -0.0943859 0)
(-0.0126057 -0.085931 0)
(0.0213238 -0.0714817 0)
(0.0478669 -0.0533433 0)
(0.0660883 -0.0335283 0)
(0.0759613 -0.013988 0)
(0.0779541 0.00377575 0)
(0.0730204 0.0186823 0)
(0.062505 0.0300541 0)
(0.0477739 0.0374487 0)
(0.0304573 0.0405704 0)
(0.0114303 0.0399279 0)
(-0.196777 0.361573 0)
(-0.276311 0.146879 0)
(-0.237042 0.0194331 0)
(-0.199445 -0.0340794 0)
(-0.167548 -0.0741171 0)
(-0.130741 -0.101061 0)
(-0.0877944 -0.112786 0)
(-0.043784 -0.112018 0)
(-0.0033826 -0.101554 0)
(0.0307693 -0.0842011 0)
(0.0570112 -0.0626763 0)
(0.0745422 -0.0393347 0)
(0.0834629 -0.0163515 0)
(0.0844004 0.00455638 0)
(0.0783938 0.0221194 0)
(0.0667928 0.035561 0)
(0.050915 0.0444464 0)
(0.0323946 0.0486408 0)
(0.0120653 0.0489298 0)
(-0.245942 0.549183 0)
(-0.234059 0.117597 0)
(-0.206684 -0.00746291 0)
(-0.17317 -0.0471776 0)
(-0.152172 -0.0887251 0)
(-0.119365 -0.118665 0)
(-0.0767612 -0.131889 0)
(-0.0318773 -0.130615 0)
(0.0095427 -0.117992 0)
(0.0440778 -0.0973842 0)
(0.0699267 -0.0720745 0)
(0.0864476 -0.0448719 0)
(0.0939882 -0.0182485 0)
(0.0933833 0.00590165 0)
(0.0857823 0.0261729 0)
(0.0725603 0.0417309 0)
(0.0550215 0.0521567 0)
(0.0348563 0.0574638 0)
(0.0128917 0.0585094 0)
(0.0226315 -0.0659854 0)
(0.0754614 -0.181021 0)
(0.135879 -0.225909 0)
(0.191744 -0.236889 0)
(0.243317 -0.235443 0)
(0.292907 -0.230704 0)
(0.341683 -0.225794 0)
(0.390031 -0.221362 0)
(0.437961 -0.217057 0)
(0.48526 -0.212066 0)
(0.531543 -0.20528 0)
(0.576288 -0.195337 0)
(0.618897 -0.180572 0)
(0.658811 -0.158866 0)
(0.695551 -0.127436 0)
(0.728652 -0.0828599 0)
(0.757704 -0.0215356 0)
(0.782899 0.0598272 0)
(0.805642 0.164094 0)
(0.829587 0.293645 0)
(0.859023 0.449531 0)
(0.923613 0.635625 0)
(0.998846 0.994484 0)
(0.0274668 -0.113782 0)
(0.0822645 -0.24378 0)
(0.141645 -0.284119 0)
(0.195156 -0.28988 0)
(0.244446 -0.285564 0)
(0.292298 -0.27957 0)
(0.339828 -0.274139 0)
(0.387262 -0.269362 0)
(0.434467 -0.264578 0)
(0.481138 -0.258793 0)
(0.526838 -0.250764 0)
(0.571023 -0.239056 0)
(0.613174 -0.222065 0)
(0.653049 -0.197865 0)
(0.690798 -0.163858 0)
(0.726774 -0.116715 0)
(0.761402 -0.0531865 0)
(0.795763 0.0289308 0)
(0.832588 0.130521 0)
(0.877347 0.250915 0)
(0.938389 0.387075 0)
(1.02563 0.535131 0)
(1.16642 0.717363 0)
(0.0318034 -0.167127 0)
(0.0878082 -0.305897 0)
(0.145694 -0.339049 0)
(0.196069 -0.339462 0)
(0.242593 -0.332967 0)
(0.288465 -0.326478 0)
(0.334618 -0.321112 0)
(0.381031 -0.316371 0)
(0.427372 -0.311344 0)
(0.473212 -0.304916 0)
(0.518027 -0.295739 0)
(0.561174 -0.282336 0)
(0.60208 -0.263308 0)
(0.640676 -0.237224 0)
(0.677671 -0.201949 0)
(0.714121 -0.154239 0)
(0.750938 -0.091019 0)
(0.789383 -0.0111278 0)
(0.831981 0.084395 0)
(0.882941 0.19202 0)
(0.947733 0.305201 0)
(1.02859 0.414628 0)
(1.14356 0.515153 0)
(0.031583 -0.226031 0)
(0.0952499 -0.369242 0)
(0.151949 -0.391523 0)
(0.197697 -0.386263 0)
(0.240427 -0.378619 0)
(0.283641 -0.372705 0)
(0.327839 -0.368171 0)
(0.372608 -0.363906 0)
(0.417336 -0.358845 0)
(0.461453 -0.351827 0)
(0.504369 -0.341385 0)
(0.545343 -0.325965 0)
(0.583651 -0.304459 0)
(0.619194 -0.276263 0)
(0.652986 -0.240114 0)
(0.686643 -0.192874 0)
(0.721578 -0.131349 0)
(0.759325 -0.055102 0)
(0.802211 0.0337667 0)
(0.853203 0.130135 0)
(0.915307 0.227774 0)
(0.990549 0.319495 0)
(1.0866 0.40093 0)
(0.0349872 -0.294423 0)
(0.117726 -0.438132 0)
(0.164586 -0.441953 0)
(0.199869 -0.43045 0)
(0.237061 -0.422906 0)
(0.277031 -0.418215 0)
(0.318755 -0.414498 0)
(0.36116 -0.410243 0)
(0.403346 -0.404392 0)
(0.444638 -0.395866 0)
(0.484404 -0.383215 0)
(0.521914 -0.364882 0)
(0.5565 -0.340091 0)
(0.587968 -0.309168 0)
(0.616952 -0.2719 0)
(0.645041 -0.22517 0)
(0.674768 -0.165566 0)
(0.709038 -0.0934823 0)
(0.750281 -0.0111928 0)
(0.800121 0.0766879 0)
(0.859442 0.163532 0)
(0.929966 0.241597 0)
(1.01476 0.306623 0)
(0.0830559 -0.371995 0)
(0.173248 -0.508736 0)
(0.180439 -0.479007 0)
(0.198082 -0.463444 0)
(0.23018 -0.457644 0)
(0.267798 -0.45371 0)
(0.30725 -0.449547 0)
(0.347178 -0.443614 0)
(0.386796 -0.435467 0)
(0.425176 -0.424287 0)
(0.461452 -0.408449 0)
(0.495003 -0.385988 0)
(0.525449 -0.355842 0)
(0.55221 -0.319275 0)
(0.574207 -0.278736 0)
(0.592325 -0.231554 0)
(0.612049 -0.173399 0)
(0.639727 -0.106689 0)
(0.678543 -0.0321794 0)
(0.730807 0.0474362 0)
(0.798097 0.123669 0)
(0.877836 0.186999 0)
(0.964899 0.2362 0)
(0.236261 -0.521884 0)
(0.262422 -0.556085 0)
(0.185232 -0.457967 0)
(0.191693 -0.465558 0)
(0.225475 -0.466984 0)
(0.264271 -0.460141 0)
(0.302987 -0.45226 0)
(0.341111 -0.44766 0)
(0.378368 -0.441321 0)
(0.41342 -0.432051 0)
(0.445077 -0.418462 0)
(0.47342 -0.399194 0)
(0.500348 -0.373856 0)
(0.527583 -0.342669 0)
(0.550692 -0.303965 0)
(0.564532 -0.257153 0)
(0.577125 -0.2033 0)
(0.591104 -0.141338 0)
(0.616504 -0.0711 0)
(0.662809 0.00187335 0)
(0.733611 0.0804516 0)
(0.829881 0.151555 0)
(0.928243 0.192859 0)
(0.302875 -0.806284 0)
(0.131976 -0.468719 0)
(0.14755 -0.405227 0)
(0.204413 -0.502194 0)
(0.241639 -0.542114 0)
(0.287114 -0.559673 0)
(0.339051 -0.569314 0)
(0.392226 -0.569903 0)
(0.446733 -0.564254 0)
(0.501491 -0.550295 0)
(0.555929 -0.528415 0)
(0.608845 -0.499627 0)
(0.659144 -0.462899 0)
(0.706531 -0.414953 0)
(0.751424 -0.358668 0)
(0.794359 -0.303004 0)
(0.836591 -0.254307 0)
(0.878656 -0.216442 0)
(0.921758 -0.190042 0)
(0.966798 -0.170655 0)
(1.01507 -0.148384 0)
(1.07736 -0.111672 0)
(1.03422 0.019185 0)
(-0.123034 -0.975173 0)
(-0.00518797 -0.505834 0)
(0.110741 -0.481792 0)
(0.207728 -0.561411 0)
(0.275981 -0.599345 0)
(0.336275 -0.606822 0)
(0.394567 -0.603254 0)
(0.450643 -0.594954 0)
(0.504782 -0.58302 0)
(0.557545 -0.566736 0)
(0.60978 -0.545277 0)
(0.661857 -0.51779 0)
(0.713952 -0.48323 0)
(0.766696 -0.440685 0)
(0.821458 -0.39138 0)
(0.879078 -0.338628 0)
(0.939551 -0.285563 0)
(1.00222 -0.234078 0)
(1.06595 -0.183943 0)
(1.12849 -0.131623 0)
(1.18503 -0.0699429 0)
(1.2359 0.00755296 0)
(1.27539 0.084481 0)
(-0.074709 -0.754533 0)
(0.0052914 -0.673258 0)
(0.122241 -0.633375 0)
(0.215246 -0.640085 0)
(0.284674 -0.64874 0)
(0.343209 -0.649877 0)
(0.398331 -0.646299 0)
(0.451522 -0.639575 0)
(0.502976 -0.629534 0)
(0.552973 -0.615095 0)
(0.602035 -0.595182 0)
(0.650754 -0.568879 0)
(0.699924 -0.535671 0)
(0.750876 -0.495791 0)
(0.805082 -0.450719 0)
(0.86376 -0.402321 0)
(0.927301 -0.352995 0)
(0.995233 -0.304207 0)
(1.0667 -0.255988 0)
(1.14065 -0.205863 0)
(1.21584 -0.147923 0)
(1.29717 -0.0724319 0)
(1.39147 0.0232646 0)
(0.00385948 -0.7656 0)
(0.0464578 -0.763361 0)
(0.12946 -0.726923 0)
(0.201992 -0.71509 0)
(0.262807 -0.711498 0)
(0.31624 -0.707218 0)
(0.366269 -0.700891 0)
(0.414356 -0.692201 0)
(0.460843 -0.680422 0)
(0.505927 -0.664535 0)
(0.54994 -0.643621 0)
(0.593447 -0.617055 0)
(0.637387 -0.584728 0)
(0.683134 -0.547296 0)
(0.732077 -0.506136 0)
(0.785697 -0.462808 0)
(0.844941 -0.419179 0)
(0.910393 -0.376273 0)
(0.982342 -0.33392 0)
(1.06137 -0.289889 0)
(1.14869 -0.239778 0)
(1.24941 -0.177523 0)
(1.36647 -0.10107 0)
(0.0198032 -0.79874 0)
(0.0607986 -0.825797 0)
(0.117859 -0.792099 0)
(0.172903 -0.774425 0)
(0.223209 -0.764448 0)
(0.269427 -0.75621 0)
(0.313035 -0.747447 0)
(0.354809 -0.736948 0)
(0.395007 -0.723609 0)
(0.433805 -0.706416 0)
(0.471515 -0.684633 0)
(0.508713 -0.657943 0)
(0.546343 -0.626602 0)
(0.585685 -0.591536 0)
(0.628133 -0.554212 0)
(0.675224 -0.5162 0)
(0.728335 -0.479055 0)
(0.78869 -0.44362 0)
(0.857658 -0.409671 0)
(0.937061 -0.375732 0)
(1.02919 -0.338798 0)
(1.13913 -0.294335 0)
(1.2692 -0.238354 0)
(0.0209288 -0.834716 0)
(0.0558926 -0.87066 0)
(0.0948876 -0.839859 0)
(0.136378 -0.820881 0)
(0.176503 -0.808103 0)
(0.214561 -0.79746 0)
(0.250819 -0.786802 0)
(0.285513 -0.774668 0)
(0.318762 -0.759852 0)
(0.350729 -0.74142 0)
(0.381756 -0.718845 0)
(0.412456 -0.692124 0)
(0.443766 -0.661855 0)
(0.476915 -0.629228 0)
(0.513322 -0.595837 0)
(0.554515 -0.56333 0)
(0.602082 -0.533158 0)
(0.657652 -0.506247 0)
(0.723079 -0.482805 0)
(0.800769 -0.462058 0)
(0.893419 -0.441853 0)
(1.00596 -0.418061 0)
(1.14126 -0.385016 0)
(0.0176883 -0.870177 0)
(0.0433579 -0.900716 0)
(0.0686753 -0.874267 0)
(0.0988936 -0.856229 0)
(0.129367 -0.842575 0)
(0.158997 -0.830619 0)
(0.187518 -0.818601 0)
(0.214864 -0.805124 0)
(0.241062 -0.789058 0)
(0.266287 -0.769627 0)
(0.290929 -0.746546 0)
(0.315643 -0.720106 0)
(0.341373 -0.69121 0)
(0.369317 -0.661293 0)
(0.400865 -0.632098 0)
(0.43753 -0.605387 0)
(0.480915 -0.582703 0)
(0.532742 -0.56517 0)
(0.594987 -0.553389 0)
(0.670092 -0.547195 0)
(0.760628 -0.545061 0)
(0.871054 -0.543041 0)
(1.00497 -0.534258 0)
(0.0113731 -0.896814 0)
(0.0281312 -0.918365 0)
(0.0434113 -0.897808 0)
(0.0640041 -0.88172 0)
(0.0855202 -0.868204 0)
(0.106952 -0.855693 0)
(0.127855 -0.842832 0)
(0.148043 -0.828416 0)
(0.16752 -0.811488 0)
(0.186497 -0.791487 0)
(0.205416 -0.768377 0)
(0.224969 -0.742728 0)
(0.246094 -0.715707 0)
(0.269938 -0.688956 0)
(0.297809 -0.664366 0)
(0.331114 -0.643805 0)
(0.371333 -0.628912 0)
(0.420045 -0.620996 0)
(0.478999 -0.620979 0)
(0.550236 -0.629142 0)
(0.63576 -0.644421 0)
(0.739263 -0.663147 0)
(0.864764 -0.677781 0)
(0.00470588 -0.912651 0)
(0.0134384 -0.927214 0)
(0.0211348 -0.912413 0)
(0.0333878 -0.898422 0)
(0.0468042 -0.885569 0)
(0.0606315 -0.873049 0)
(0.0744183 -0.859841 0)
(0.0879726 -0.844968 0)
(0.101328 -0.827693 0)
(0.114744 -0.807684 0)
(0.128709 -0.785153 0)
(0.143928 -0.760912 0)
(0.161298 -0.736339 0)
(0.181872 -0.71324 0)
(0.206808 -0.693598 0)
(0.237312 -0.679342 0)
(0.27461 -0.672159 0)
(0.319936 -0.673449 0)
(0.374547 -0.684294 0)
(0.43979 -0.705213 0)
(0.516838 -0.735492 0)
(0.608499 -0.771897 0)
(0.718694 -0.806817 0)
(-0.000931847 -0.917729 0)
(0.000851861 -0.930032 0)
(0.00252013 -0.919427 0)
(0.00761287 -0.907383 0)
(0.0139228 -0.895501 0)
(0.0209775 -0.883387 0)
(0.0283949 -0.870288 0)
(0.0360342 -0.855459 0)
(0.0439868 -0.838388 0)
(0.0525643 -0.818973 0)
(0.0622796 -0.797642 0)
(0.0738159 -0.775403 0)
(0.0879864 -0.753783 0)
(0.1057 -0.734682 0)
(0.127899 -0.720113 0)
(0.15551 -0.711991 0)
(0.189395 -0.711964 0)
(0.230311 -0.721386 0)
(0.278882 -0.741313 0)
(0.335645 -0.772327 0)
(0.400885 -0.81401 0)
(0.476575 -0.863786 0)
(0.566229 -0.914693 0)
(-0.00522803 -0.913784 0)
(-0.0090166 -0.92821 0)
(-0.0123409 -0.919976 0)
(-0.0133684 -0.909716 0)
(-0.0130725 -0.898982 0)
(-0.0118302 -0.887582 0)
(-0.00992066 -0.874982 0)
(-0.00740401 -0.860655 0)
(-0.00412361 -0.844305 0)
(0.000272098 -0.826031 0)
(0.00629446 -0.806438 0)
(0.014569 -0.786668 0)
(0.0257826 -0.768331 0)
(0.0406574 -0.753337 0)
(0.0598782 -0.74367 0)
(0.0840374 -0.741145 0)
(0.113586 -0.747273 0)
(0.148754 -0.763225 0)
(0.189515 -0.789879 0)
(0.235622 -0.827748 0)
(0.286519 -0.876684 0)
(0.343368 -0.934996 0)
(0.408955 -0.997184 0)
(-0.00779613 -0.905014 0)
(-0.0162101 -0.920954 0)
(-0.0238854 -0.915124 0)
(-0.029792 -0.906571 0)
(-0.0344431 -0.897061 0)
(-0.0380433 -0.886574 0)
(-0.0407658 -0.874768 0)
(-0.0425894 -0.861315 0)
(-0.043302 -0.846103 0)
(-0.0425338 -0.829395 0)
(-0.0398048 -0.811921 0)
(-0.0345792 -0.794895 0)
(-0.0263184 -0.779938 0)
(-0.0145197 -0.768909 0)
(0.00122903 -0.763685 0)
(0.021187 -0.765916 0)
(0.0453924 -0.77688 0)
(0.0735841 -0.797471 0)
(0.105169 -0.828268 0)
(0.139229 -0.869616 0)
(0.174439 -0.921535 0)
(0.211066 -0.983212 0)
(0.250492 -1.05098 0)
(-0.0093551 -0.892207 0)
(-0.0212272 -0.909837 0)
(-0.032345 -0.906005 0)
(-0.0420689 -0.899023 0)
(-0.050668 -0.890733 0)
(-0.0581891 -0.881272 0)
(-0.0647082 -0.870464 0)
(-0.0701375 -0.858148 0)
(-0.0742305 -0.844364 0)
(-0.0766248 -0.829494 0)
(-0.0768974 -0.814339 0)
(-0.0746254 -0.800124 0)
(-0.0694373 -0.788418 0)
(-0.0610518 -0.780969 0)
(-0.0493221 -0.779487 0)
(-0.0342948 -0.785404 0)
(-0.0162783 -0.799735 0)
(0.00408235 -0.823039 0)
(0.0257478 -0.855519 0)
(0.0473057 -0.897209 0)
(0.0668307 -0.948129 0)
(0.083722 -1.00809 0)
(0.0978262 -1.07505 0)
(-0.010166 -0.876882 0)
(-0.0244338 -0.895817 0)
(-0.0381114 -0.893645 0)
(-0.0507162 -0.888049 0)
(-0.0623623 -0.880918 0)
(-0.0729655 -0.872519 0)
(-0.0825225 -0.862819 0)
(-0.090899 -0.851789 0)
(-0.0978373 -0.839584 0)
(-0.103005 -0.826659 0)
(-0.106055 -0.813837 0)
(-0.106689 -0.802302 0)
(-0.104701 -0.793523 0)
(-0.100017 -0.789091 0)
(-0.0927227 -0.790512 0)
(-0.0831214 -0.79898 0)
(-0.0717919 -0.815218 0)
(-0.0596505 -0.839435 0)
(-0.048 -0.871432 0)
(-0.0385501 -0.910858 0)
(-0.0335654 -0.957553 0)
(-0.0340966 -1.01169 0)
(-0.0417236 -1.07267 0)
(-0.0104272 -0.860105 0)
(-0.0261875 -0.879811 0)
(-0.0416266 -0.878947 0)
(-0.0562979 -0.874516 0)
(-0.0701999 -0.868434 0)
(-0.0831451 -0.86107 0)
(-0.0950704 -0.852499 0)
(-0.105815 -0.842797 0)
(-0.115132 -0.832192 0)
(-0.122735 -0.821172 0)
(-0.128363 -0.810539 0)
(-0.131841 -0.801398 0)
(-0.133118 -0.795078 0)
(-0.132297 -0.792986 0)
(-0.129655 -0.796411 0)
(-0.12569 -0.806307 0)
(-0.121164 -0.823121 0)
(-0.117149 -0.846735 0)
(-0.115061 -0.87656 0)
(-0.116702 -0.911826 0)
(-0.124436 -0.952075 0)
(-0.139457 -0.997662 0)
(-0.164429 -1.04945 0)
(-0.0102985 -0.842718 0)
(-0.0268117 -0.862614 0)
(-0.043335 -0.862683 0)
(-0.0593793 -0.859176 0)
(-0.0748578 -0.853994 0)
(-0.0895055 -0.847581 0)
(-0.103217 -0.840091 0)
(-0.115826 -0.831665 0)
(-0.127107 -0.82257 0)
(-0.136833 -0.813295 0)
(-0.144831 -0.804587 0)
(-0.151039 -0.797442 0)
(-0.15554 -0.79303 0)
(-0.15858 -0.79256 0)
(-0.160584 -0.797105 0)
(-0.162181 -0.807391 0)
(-0.164243 -0.823628 0)
(-0.167903 -0.845417 0)
(-0.174572 -0.871821 0)
(-0.185997 -0.901663 0)
(-0.204435 -0.934128 0)
(-0.231174 -0.969549 0)
(-0.269502 -1.01002 0)
(-0.00991649 -0.825341 0)
(-0.0265977 -0.844878 0)
(-0.0436514 -0.8455 0)
(-0.0604927 -0.842661 0)
(-0.0769759 -0.838207 0)
(-0.0927824 -0.832619 0)
(-0.107781 -0.826099 0)
(-0.12181 -0.818824 0)
(-0.13468 -0.811069 0)
(-0.146225 -0.803293 0)
(-0.156354 -0.796166 0)
(-0.165104 -0.790559 0)
(-0.172669 -0.787471 0)
(-0.179403 -0.787915 0)
(-0.185831 -0.792755 0)
(-0.192669 -0.802522 0)
(-0.200837 -0.817227 0)
(-0.211463 -0.836255 0)
(-0.225877 -0.858386 0)
(-0.245684 -0.882068 0)
(-0.2729 -0.906076 0)
(-0.308899 -0.930498 0)
(-0.357242 -0.95819 0)
(-0.00939069 -0.808405 0)
(-0.0257972 -0.827113 0)
(-0.0429426 -0.827925 0)
(-0.0601146 -0.825497 0)
(-0.0771304 -0.821581 0)
(-0.0936399 -0.816664 0)
(-0.109498 -0.810965 0)
(-0.124557 -0.804664 0)
(-0.138668 -0.798024 0)
(-0.151725 -0.79145 0)
(-0.16371 -0.785521 0)
(-0.174742 -0.780974 0)
(-0.185095 -0.778638 0)
(-0.195202 -0.779335 0)
(-0.205654 -0.783741 0)
(-0.217207 -0.792214 0)
(-0.230793 -0.804618 0)
(-0.247493 -0.820184 0)
(-0.268518 -0.837487 0)
(-0.295279 -0.854662 0)
(-0.329501 -0.870032 0)
(-0.372573 -0.883209 0)
(-0.428164 -0.897206 0)
(-0.00880173 -0.792191 0)
(-0.0246173 -0.809699 0)
(-0.0415179 -0.810373 0)
(-0.0586526 -0.808109 0)
(-0.0758193 -0.804538 0)
(-0.0926537 -0.800122 0)
(-0.109007 -0.795068 0)
(-0.12475 -0.78954 0)
(-0.139776 -0.78376 0)
(-0.154033 -0.778071 0)
(-0.167565 -0.772952 0)
(-0.180552 -0.769003 0)
(-0.193325 -0.766892 0)
(-0.206364 -0.767263 0)
(-0.220294 -0.770619 0)
(-0.235883 -0.777174 0)
(-0.254041 -0.786681 0)
(-0.275788 -0.798276 0)
(-0.302202 -0.810409 0)
(-0.334477 -0.820982 0)
(-0.37403 -0.827878 0)
(-0.422131 -0.830051 0)
(-0.48235 -0.830021 0)
(-0.00820185 -0.776855 0)
(-0.0232193 -0.792904 0)
(-0.0396274 -0.793158 0)
(-0.0564427 -0.790833 0)
(-0.0734568 -0.787422 0)
(-0.0903055 -0.783334 0)
(-0.106842 -0.778743 0)
(-0.12296 -0.773773 0)
(-0.138593 -0.768596 0)
(-0.153735 -0.763479 0)
(-0.168479 -0.7588 0)
(-0.183048 -0.75503 0)
(-0.197807 -0.752685 0)
(-0.213257 -0.752248 0)
(-0.230026 -0.754071 0)
(-0.248869 -0.758245 0)
(-0.270654 -0.76444 0)
(-0.296329 -0.771745 0)
(-0.326841 -0.778557 0)
(-0.363175 -0.78263 0)
(-0.406438 -0.78148 0)
(-0.457657 -0.773355 0)
(-0.519986 -0.759839 0)
(-0.00761691 -0.762472 0)
(-0.0217207 -0.776899 0)
(-0.0374651 -0.77651 0)
(-0.0537514 -0.773929 0)
(-0.0703756 -0.770506 0)
(-0.0869835 -0.766583 0)
(-0.103436 -0.762278 0)
(-0.119651 -0.757662 0)
(-0.135597 -0.752842 0)
(-0.151309 -0.748008 0)
(-0.166916 -0.743438 0)
(-0.182668 -0.739483 0)
(-0.198943 -0.736523 0)
(-0.21624 -0.7349 0)
(-0.235169 -0.734836 0)
(-0.256444 -0.736316 0)
(-0.280877 -0.738955 0)
(-0.309328 -0.741829 0)
(-0.342626 -0.74334 0)
(-0.381562 -0.741188 0)
(-0.426954 -0.732634 0)
(-0.47952 -0.715299 0)
(-0.541763 -0.689695 0)
(-0.00704882 -0.749063 0)
(-0.0201972 -0.761781 0)
(-0.0351739 -0.760584 0)
(-0.0507821 -0.75759 0)
(-0.0668326 -0.754013 0)
(-0.0829892 -0.75011 0)
(-0.0991256 -0.745931 0)
(-0.115185 -0.74148 0)
(-0.131167 -0.736796 0)
(-0.14714 -0.73199 0)
(-0.163259 -0.727246 0)
(-0.179785 -0.722809 0)
(-0.197094 -0.718939 0)
(-0.215665 -0.715857 0)
(-0.236069 -0.713671 0)
(-0.258967 -0.712284 0)
(-0.285092 -0.711271 0)
(-0.315207 -0.709723 0)
(-0.350026 -0.706095 0)
(-0.390164 -0.698119 0)
(-0.436189 -0.682938 0)
(-0.488509 -0.657715 0)
(-0.5489 -0.621972 0)
(-0.00648106 -0.736629 0)
(-0.0186899 -0.747579 0)
(-0.0328534 -0.745474 0)
(-0.0476829 -0.741957 0)
(-0.0630176 -0.738118 0)
(-0.078546 -0.734119 0)
(-0.0941615 -0.729929 0)
(-0.109833 -0.725482 0)
(-0.125591 -0.720745 0)
(-0.141528 -0.715752 0)
(-0.157816 -0.710606 0)
(-0.174716 -0.705458 0)
(-0.192587 -0.700466 0)
(-0.211875 -0.69575 0)
(-0.233102 -0.691325 0)
(-0.256858 -0.687028 0)
(-0.283787 -0.682405 0)
(-0.314549 -0.676583 0)
(-0.349738 -0.668101 0)
(-0.389812 -0.654795 0)
(-0.435126 -0.63382 0)
(-0.48583 -0.602083 0)
(-0.54302 -0.558324 0)
(-0.00589267 -0.725176 0)
(-0.0172175 -0.734278 0)
(-0.0305724 -0.731224 0)
(-0.0445571 -0.727134 0)
(-0.0590624 -0.722968 0)
(-0.073809 -0.718789 0)
(-0.0887189 -0.714482 0)
(-0.103791 -0.709904 0)
(-0.119081 -0.704957 0)
(-0.134703 -0.699605 0)
(-0.150836 -0.69388 0)
(-0.167732 -0.687855 0)
(-0.185723 -0.681605 0)
(-0.205212 -0.675169 0)
(-0.226662 -0.668488 0)
(-0.250585 -0.661347 0)
(-0.277533 -0.653281 0)
(-0.308054 -0.643456 0)
(-0.342624 -0.630518 0)
(-0.381562 -0.612451 0)
(-0.42504 -0.586525 0)
(-0.47302 -0.549576 0)
(-0.52603 -0.499801 0)
(-0.00528555 -0.714698 0)
(-0.0157957 -0.721818 0)
(-0.028384 -0.717845 0)
(-0.0414746 -0.713194 0)
(-0.0550507 -0.708688 0)
(-0.0688747 -0.704285 0)
(-0.0829084 -0.699782 0)
(-0.0971835 -0.694969 0)
(-0.111782 -0.689686 0)
(-0.126832 -0.683841 0)
(-0.142512 -0.677407 0)
(-0.159058 -0.670393 0)
(-0.176769 -0.662812 0)
(-0.195998 -0.654638 0)
(-0.217144 -0.64576 0)
(-0.24064 -0.635925 0)
(-0.266939 -0.624667 0)
(-0.296485 -0.611201 0)
(-0.329638 -0.594287 0)
(-0.36659 -0.572079 0)
(-0.40737 -0.54203 0)
(-0.451801 -0.501039 0)
(-0.499993 -0.446973 0)
(-0.0047146 -0.705158 0)
(-0.0144571 -0.710112 0)
(-0.0263417 -0.705333 0)
(-0.0384811 -0.700208 0)
(-0.0510256 -0.695401 0)
(-0.0637896 -0.690762 0)
(-0.0767864 -0.686011 0)
(-0.0900843 -0.680881 0)
(-0.103788 -0.675164 0)
(-0.118035 -0.668726 0)
(-0.132995 -0.661493 0)
(-0.148885 -0.653428 0)
(-0.165963 -0.644494 0)
(-0.184532 -0.63462 0)
(-0.204926 -0.623656 0)
(-0.227498 -0.61133 0)
(-0.252611 -0.597184 0)
(-0.280605 -0.580488 0)
(-0.311736 -0.560118 0)
(-0.346086 -0.534409 0)
(-0.383571 -0.501027 0)
(-0.423922 -0.457018 0)
(-0.466965 -0.400068 0)
(-0.00426911 -0.696542 0)
(-0.0132441 -0.699078 0)
(-0.0245016 -0.693702 0)
(-0.0355985 -0.688258 0)
(-0.0469927 -0.683229 0)
(-0.0585564 -0.678368 0)
(-0.070364 -0.673334 0)
(-0.0825218 -0.667822 0)
(-0.0951523 -0.661596 0)
(-0.108393 -0.654492 0)
(-0.122403 -0.646407 0)
(-0.137368 -0.637268 0)
(-0.153512 -0.627004 0)
(-0.171083 -0.615508 0)
(-0.190353 -0.602609 0)
(-0.211605 -0.588026 0)
(-0.235116 -0.571319 0)
(-0.261133 -0.551821 0)
(-0.289819 -0.528521 0)
(-0.321167 -0.499934 0)
(-0.355004 -0.463948 0)
(-0.391006 -0.417802 0)
(-0.428842 -0.359083 0)
(-0.00396306 -0.688934 0)
(-0.0121242 -0.688654 0)
(-0.0228967 -0.683003 0)
(-0.0328142 -0.677459 0)
(-0.0429204 -0.672315 0)
(-0.0531413 -0.667254 0)
(-0.0636192 -0.661905 0)
(-0.0744943 -0.655955 0)
(-0.0858983 -0.649158 0)
(-0.0979613 -0.641339 0)
(-0.110821 -0.632376 0)
(-0.124637 -0.622172 0)
(-0.139589 -0.61063 0)
(-0.155881 -0.597621 0)
(-0.173729 -0.58296 0)
(-0.19335 -0.566367 0)
(-0.214951 -0.547431 0)
(-0.2387 -0.525545 0)
(-0.264679 -0.499814 0)
(-0.29281 -0.468924 0)
(-0.322854 -0.430983 0)
(-0.354452 -0.383432 0)
(-0.387197 -0.323816 0)
(-0.00376429 -0.682219 0)
(-0.0109116 -0.678647 0)
(-0.0215256 -0.673297 0)
(-0.0300796 -0.667964 0)
(-0.0387447 -0.662823 0)
(-0.0474855 -0.657575 0)
(-0.0565105 -0.651875 0)
(-0.0659841 -0.645431 0)
(-0.0760347 -0.638014 0)
(-0.0867747 -0.62945 0)
(-0.0983172 -0.619606 0)
(-0.110789 -0.608369 0)
(-0.124334 -0.595624 0)
(-0.139113 -0.581227 0)
(-0.155295 -0.564984 0)
(-0.173047 -0.546624 0)
(-0.192517 -0.525769 0)
(-0.213813 -0.501876 0)
(-0.236954 -0.47416 0)
(-0.261808 -0.44147 0)
(-0.288084 -0.402122 0)
(-0.315394 -0.35376 0)
(-0.343289 -0.293918 0)
(-0.00435362 -0.67566 0)
(-0.00957205 -0.668516 0)
(-0.0204583 -0.664594 0)
(-0.0273462 -0.659912 0)
(-0.0343893 -0.654888 0)
(-0.0415229 -0.649444 0)
(-0.0489957 -0.643343 0)
(-0.0569751 -0.636356 0)
(-0.0655692 -0.628285 0)
(-0.0748631 -0.618967 0)
(-0.0849405 -0.608264 0)
(-0.095897 -0.59605 0)
(-0.107844 -0.582194 0)
(-0.120907 -0.56654 0)
(-0.135219 -0.548893 0)
(-0.150909 -0.528993 0)
(-0.168085 -0.506495 0)
(-0.186813 -0.480924 0)
(-0.207078 -0.451602 0)
(-0.228712 -0.41753 0)
(-0.251388 -0.377224 0)
(-0.274685 -0.328523 0)
(-0.298115 -0.268972 0)
(-0.00848538 -0.669011 0)
(-0.00880131 -0.657838 0)
(-0.0199577 -0.656952 0)
(-0.0245928 -0.653397 0)
(-0.0297796 -0.648529 0)
(-0.035197 -0.642832 0)
(-0.04105 -0.636269 0)
(-0.0474698 -0.628699 0)
(-0.0545252 -0.619962 0)
(-0.0622648 -0.609908 0)
(-0.0707416 -0.598395 0)
(-0.0800228 -0.585283 0)
(-0.0901925 -0.570426 0)
(-0.101349 -0.553657 0)
(-0.113598 -0.534778 0)
(-0.127044 -0.513544 0)
(-0.141777 -0.48964 0)
(-0.157848 -0.462657 0)
(-0.175232 -0.432018 0)
(-0.193765 -0.39688 0)
(-0.213112 -0.355954 0)
(-0.232829 -0.30728 0)
(-0.252362 -0.248442 0)
(-0.0210596 -0.663733 0)
(-0.00923754 -0.64832 0)
(-0.0202464 -0.651297 0)
(-0.0217778 -0.648923 0)
(-0.024837 -0.643996 0)
(-0.0284689 -0.637864 0)
(-0.0326767 -0.630734 0)
(-0.0375021 -0.622537 0)
(-0.0429555 -0.613139 0)
(-0.0490443 -0.60239 0)
(-0.0557913 -0.590136 0)
(-0.0632396 -0.576222 0)
(-0.0714511 -0.560484 0)
(-0.0805033 -0.542742 0)
(-0.0904841 -0.522794 0)
(-0.101485 -0.5004 0)
(-0.113591 -0.475275 0)
(-0.126863 -0.447059 0)
(-0.141307 -0.415273 0)