/*--------------------------------*- C++ -*----------------------------------*\
| =========                 |                                                 |
| \\      /  F ield         | OpenFOAM: The Open Source CFD Toolbox           |
|  \\    /   O peration     | Version:  v2012                                 |
|   \\  /    A nd           | Website:  www.openfoam.com                      |
|    \\/     M anipulation  |                                                 |
\*---------------------------------------------------------------------------*/
FoamFile
{
    version     2.0;
    format      ascii;
    class       volScalarField;
    location    "0.05";
    object      alpha.water;
}
// * * * * * * * * * * * * * * * * * * * * * * * * * * * * * * * * * * * * * //

dimensions      [0 0 0 0 0 0 0];


internalField   nonuniform List<scalar> 
2268
(
1
1
1
1
1
1
1
1
1
1
1
1
0.998443
0.864624
0.334739
0.0232645
0.00677735
0.00157489
0.0002824
3.74965e-05
3.2491e-06
2.31357e-07
1.49313e-07
1
1
1
1
1
1
1
1
1
1
1
1
0.959219
0.526284
0.075587
0.0110807
0.0034899
0.00103438
0.000145653
2.04488e-05
1.96206e-06
1.40739e-07
7.05489e-08
1
1
1
1
1
1
1
1
1
1
1
1
0.886459
0.24224
0.012067
0.00379638
0.00124635
0.000321037
5.86518e-05
7.77638e-06
8.18214e-07
6.57499e-08
3.18085e-08
1
1
1
1
1
1
1
1
1
1
1
1
0.809028
0.135684
0.00628336
0.00160015
0.000412207
9.43636e-05
1.82027e-05
2.82951e-06
3.21066e-07
2.899e-08
1.46618e-08
1
1
1
1
1
1
1
1
1
1
1
1
0.743123
0.0861835
0.00390992
0.000837698
0.000180149
3.70516e-05
6.81889e-06
1.0639e-06
1.27595e-07
1.2965e-08
7.37649e-09
1
1
1
1
1
1
1
1
1
1
1
1
0.697783
0.0610095
0.00274439
0.000519486
9.52016e-05
1.70711e-05
2.87503e-06
4.33559e-07
5.3372e-08
6.69557e-09
4.22699e-09
1
1
1
1
1
1
1
1
1
1
1
1
0.675891
0.050003
0.00210189
0.000366203
6.01504e-05
9.55072e-06
1.44837e-06
2.04987e-07
2.56652e-08
4.06897e-09
2.80688e-09
1
1
1
1
1
1
1
1
1
1
1
1
0.667809
0.0452375
0.00169981
0.000280115
4.3232e-05
6.35971e-06
8.89999e-07
1.18506e-07
1.51256e-08
2.75854e-09
1.58485e-09
8.75595e-24
1.12655e-24
2.27808e-26
3.35091e-28
1.08367e-29
3.97123e-31
2.54119e-32
9.23489e-34
2.73106e-35
7.45147e-37
1.81687e-38
3.88724e-40
7.14439e-42
1.09612e-43
1.34392e-45
1.22566e-47
7.29064e-50
2.19286e-52
8.26085e-53
3.29379e-22
1.2986e-22
2.14838e-24
1.16315e-26
3.35077e-28
1.08361e-29
1.66951e-30
6.11907e-32
1.54107e-33
3.90906e-35
8.85543e-37
1.75526e-38
2.97024e-40
4.1451e-42
4.50729e-44
3.45413e-46
1.52284e-48
2.59483e-51
8.25539e-53
2.39429e-20
6.95834e-21
9.821e-23
8.84586e-25
2.55403e-26
8.11893e-28
5.35881e-29
1.61292e-30
3.96663e-32
9.13197e-34
1.87463e-35
3.35529e-37
5.09065e-39
6.28025e-41
5.83791e-43
3.87947e-45
2.03553e-47
5.46198e-50
2.68319e-51
9.45632e-19
2.27199e-19
3.00554e-21
2.69263e-23
8.13506e-25
2.50848e-26
1.21593e-27
3.22953e-29
7.2796e-31
1.51891e-32
2.81572e-34
4.5168e-36
6.04148e-38
6.77824e-40
6.75248e-42
5.14122e-44
2.70031e-46
7.81243e-49
5.66812e-50
2.44241e-17
5.2616e-18
7.00381e-20
5.75615e-22
1.74081e-23
5.25364e-25
2.29504e-26
5.5118e-28
1.13443e-29
2.15235e-31
3.58991e-33
5.58574e-35
7.81986e-37
9.20623e-39
8.77765e-41
6.45054e-43
3.33511e-45
9.77522e-48
8.09561e-49
4.71511e-16
9.68404e-17
1.36767e-18
1.05344e-20
3.30481e-22
1.26241e-23
4.03413e-25
8.68221e-27
1.66907e-28
3.07948e-30
5.54248e-32
8.75722e-34
1.19012e-35
1.35691e-37
1.25732e-39
9.02836e-42
4.58248e-44
1.26817e-46
1.01311e-47
2.20703e-14
3.32645e-15
3.01189e-17
4.49076e-19
1.10271e-20
2.98074e-22
6.69857e-24
1.36188e-25
2.69431e-27
5.44287e-29
9.78632e-31
1.53891e-32
2.07793e-34
2.35496e-36
2.17042e-38
1.5485e-40
7.75846e-43
1.27285e-45
1.34305e-46
4.20867e-13
3.77131e-14
5.18597e-16
9.21781e-18
1.68198e-19
4.05965e-21
9.35278e-23
1.91987e-24
4.21752e-26
8.79893e-28
1.62457e-29
2.61895e-31
3.62326e-33
4.20621e-35
3.96672e-37
2.8835e-39
1.45424e-41
3.70332e-44
2.19935e-45
1
1
1
1
1
1
1
1
1
1
1
1
0.642172
0.0355751
0.0012563
0.000191883
2.82017e-05
3.9516e-06
5.28097e-07
6.84479e-08
9.07431e-09
1.58154e-09
6.04963e-10
1
1
1
1
1
1
1
1
1
1
1
1
0.568543
0.0179388
0.000761907
0.000108752
1.54704e-05
2.13866e-06
2.85777e-07
3.76054e-08
5.12402e-09
8.58575e-10
2.56752e-10
1
1
1
1
1
1
1
1
1
1
1
1
0.495604
0.00831164
0.000456364
5.86599e-05
7.76345e-06
1.02554e-06
1.334e-07
1.72515e-08
2.26382e-09
3.42921e-10
9.39235e-11
1
1
1
1
1
1
1
1
1
1
1
1
0.429943
0.00384775
0.000274884
3.14706e-05
3.77597e-06
4.61758e-07
5.66129e-08
6.9675e-09
8.57548e-10
1.21719e-10
2.94263e-11
1
1
1
1
1
1
1
1
1
1
1
1
0.371909
0.00164798
0.000162186
1.65416e-05
1.78561e-06
1.99006e-07
2.25743e-08
2.58579e-09
3.03898e-10
4.18398e-11
9.47524e-12
1
1
1
1
1
1
1
1
1
1
1
1
0.320989
0.00108271
9.40394e-05
8.50029e-06
8.20062e-07
8.26066e-08
8.57104e-09
9.01824e-10
1.0795e-10
1.67789e-11
3.17101e-12
1
1
1
1
1
1
1
1
1
1
1
1
0.276842
0.000700921
5.37515e-05
4.28441e-06
3.65993e-07
3.30719e-08
3.10624e-09
2.9874e-10
3.53188e-11
7.42629e-12
9.60351e-13
1
1
1
1
1
1
1
1
1
1
1
1
0.23858
0.000440568
3.03026e-05
2.10355e-06
1.58761e-07
1.2763e-08
1.07875e-09
1.0269e-10
1.15944e-11
2.53239e-12
2.49751e-13
1
1
1
1
1
1
1
1
1
1
1
1
0.205231
0.0002601
1.67764e-05
1.00313e-06
6.61701e-08
4.71756e-09
3.56835e-10
3.34436e-11
6.08139e-12
7.35888e-13
5.58246e-14
1
1
1
1
1
1
1
1
1
1
1
1
0.175961
0.000155498
9.06309e-06
4.60351e-07
2.61312e-08
1.64263e-09
1.11999e-10
1.01034e-11
2.25507e-12
1.86769e-13
1.19547e-14
1
1
1
1
1
1
1
1
1
1
1
1
0.150135
9.16895e-05
4.73222e-06
2.00285e-07
9.62689e-09
5.29273e-10
3.56508e-11
4.66326e-12
6.1699e-13
3.97561e-14
2.33986e-15
1
1
1
1
1
1
1
1
1
1
1
1
0.127275
5.25149e-05
2.37065e-06
7.86637e-08
3.18075e-09
1.544e-10
9.9853e-12
2.04268e-12
1.48676e-13
7.64347e-15
4.08195e-16
0.999999
0.999999
1
1
1
1
1
1
0.999999
0.999999
0.999999
0.999999
0.107003
2.8941e-05
1.10135e-06
2.89094e-08
8.02979e-10
3.68891e-11
2.47794e-12
5.76118e-13
2.93294e-14
1.29489e-15
6.15786e-17
0.999995
0.999996
0.999997
0.999997
0.999997
0.999997
0.999997
0.999997
0.999996
0.999995
0.999994
0.999992
0.0886735
1.54934e-05
4.62334e-07
5.77691e-09
1.84041e-10
6.82548e-12
1.74807e-12
1.14914e-13
4.39787e-15
1.83293e-16
7.77775e-18
0.999965
0.999971
0.999977
0.99998
0.999981
0.99998
0.999979
0.999977
0.999973
0.999969
0.999964
0.999948
0.0716045
8.96133e-06
2.20677e-07
-1.61132e-09
-1.56198e-11
3.37612e-12
5.94537e-13
1.61393e-14
5.45546e-16
2.0884e-17
7.99588e-19
0.999766
0.999804
0.999836
0.999854
0.999859
0.999857
0.999848
0.999834
0.999815
0.999792
0.999759
0.99966
0.0599101
6.45663e-06
1.68262e-09
-1.95204e-10
5.51947e-11
1.25575e-12
6.62115e-14
1.61696e-15
5.23774e-17
1.89389e-18
6.55904e-20
0.99845
0.998682
0.998864
0.998959
0.99899
0.998973
0.99892
0.998841
0.998736
0.998601
0.998422
0.997799
0.0640948
4.60282e-06
-2.07118e-08
2.3971e-09
8.14292e-15
-4.75755e-14
5.78661e-15
1.43956e-16
4.44563e-18
1.48957e-19
4.46836e-21
0.93816
0.953627
0.960344
0.962907
0.963266
0.961999
0.959367
0.955661
0.950791
0.944415
0.935382
0.890613
0.104531
-5.21728e-06
1.66808e-07
-2.56539e-11
1.1323e-13
8.27874e-15
4.62039e-16
1.29781e-17
3.78635e-19
1.17894e-20
3.09158e-22
0.285715
0.325613
0.343922
0.350986
0.351293
0.346493
0.338577
0.328493
0.31597
0.300712
0.279178
0.212039
0.0843175
-1.08086e-05
-5.45395e-09
-1.05643e-10
-2.27807e-13
1.6162e-15
4.58664e-17
1.07035e-18
2.99769e-20
8.7945e-22
2.02575e-23
1.85426e-24
1.91718e-24
1.31168e-23
9.95419e-22
6.44039e-20
3.23394e-18
1.2789e-16
4.09486e-15
1.07994e-13
2.35932e-12
4.2384e-11
5.96347e-10
1.43616e-08
4.4399e-05
4.08317e-11
1.27365e-13
-1.02527e-14
4.21124e-16
3.70689e-18
7.5479e-20
2.08911e-21
5.88786e-23
1.19127e-24
5.31776e-25
3.54238e-24
1.04335e-22
7.32475e-21
4.59947e-19
2.27784e-17
8.88591e-16
2.39837e-14
3.58837e-13
4.41358e-12
4.39284e-11
3.45196e-10
3.01503e-07
2.44333e-06
-3.05716e-13
-8.6255e-14
3.61034e-16
1.50036e-16
2.84712e-19
4.33664e-21
1.24735e-22
3.47612e-24
6.17014e-26
7.406e-41
-2.79983e-25
-8.91535e-24
-5.49305e-22
-2.53359e-20
-8.86756e-19
-2.42506e-17
-5.37102e-16
-9.89023e-15
-1.67591e-13
-2.82875e-12
-3.30576e-11
-1.31416e-10
-1.11699e-10
1.32371e-13
-2.32618e-14
4.72829e-16
8.28514e-18
7.76446e-21
1.73038e-22
6.09793e-24
1.7601e-25
2.71364e-27
-4.9741e-27
-4.21851e-25
-2.00304e-23
-6.6531e-22
-1.58397e-20
-2.68692e-19
-2.92547e-18
-7.36522e-18
-4.16064e-17
-2.32489e-15
-6.94709e-14
-4.39789e-13
-6.67771e-13
-9.79541e-14
-6.59789e-14
5.91854e-17
4.20758e-17
2.99462e-20
3.51467e-22
8.18105e-24
2.08398e-25
7.33514e-27
9.79367e-29
-6.34633e-29
-6.14078e-27
-3.37808e-25
-1.1552e-23
-2.95736e-22
-5.89032e-21
-9.32582e-20
-1.18341e-18
-1.19942e-17
-9.55034e-17
-5.75902e-16
-2.41871e-15
-5.38705e-15
-4.96232e-16
9.97415e-17
1.07889e-18
-1.06088e-20
-5.64899e-21
1.9186e-23
4.78411e-25
1.06794e-26
2.16603e-28
4.49274e-30
-2.58679e-34
-9.82795e-44
-2.63302e-32
-1.40482e-30
-5.26213e-29
-6.62382e-28
1.17266e-25
4.89819e-24
1.17621e-22
2.12906e-21
3.1705e-20
1.10307e-18
3.32604e-17
1.18327e-16
1.28166e-18
1.58867e-19
4.34137e-21
4.95599e-23
1.02397e-24
2.41327e-26
5.3337e-28
8.37868e-30
1.8434e-31
1.42484e-41
-3.40446e-35
-1.73294e-33
-6.74692e-32
-9.4582e-31
-2.63552e-30
-1.08673e-28
-1.87373e-27
-2.54755e-26
-2.7256e-25
1.16914e-23
1.3467e-21
6.00869e-20
2.6275e-19
2.89378e-22
1.3736e-21
1.05528e-22
1.88034e-24
4.22315e-26
1.04043e-27
2.30508e-29
3.44631e-31
6.78877e-33
8.37265e-45
1.11449e-42
7.52533e-41
3.51062e-39
-1.51286e-35
-7.13954e-34
-1.36077e-32
-1.9388e-31
-2.21672e-30
-1.95453e-29
2.39383e-28
6.86763e-27
1.57488e-25
1.75922e-23
1.32455e-22
3.39754e-24
1.1895e-24
5.61119e-26
1.32622e-27
3.80526e-29
8.649e-31
1.26425e-32
2.22591e-34
2.23387e-49
-1.46576e-46
1.11812e-45
-6.13674e-41
4.03411e-42
-7.90537e-39
-8.13033e-38
-3.25265e-37
-1.21394e-35
-2.22442e-34
2.78126e-31
8.42389e-30
2.19173e-28
3.37141e-26
2.96313e-25
1.0416e-27
7.54638e-27
8.07847e-28
2.39332e-29
8.85629e-31
2.82906e-32
4.11714e-34
6.63046e-36
-9.09275e-52
1.09951e-50
3.92421e-49
6.03823e-47
-8.04128e-44
-8.83367e-43
-3.74e-42
-1.64964e-40
-3.00568e-39
-2.35288e-38
1.33145e-35
4.95892e-34
1.18715e-32
2.75019e-31
4.89272e-29
5.37988e-28
1.68038e-29
6.96247e-30
3.25053e-31
1.58219e-32
6.34314e-34
1.1537e-35
1.72865e-37
-9.50103e-56
-2.66416e-53
-8.30809e-53
-2.51576e-51
-7.36507e-50
-3.63295e-46
-1.42009e-44
-2.99011e-43
-5.3026e-42
-1.00245e-42
8.80221e-39
4.47013e-37
1.26307e-35
3.38712e-34
8.33279e-32
1.05947e-30
3.54171e-33
3.51395e-32
3.21246e-33
2.23094e-34
1.11167e-35
2.83385e-37
4.01653e-39
3.31655e-61
2.37229e-59
6.65513e-57
4.20709e-55
2.25952e-53
1.03992e-51
3.79944e-50
1.22505e-48
3.55056e-47
9.89303e-46
1.50255e-43
1.45151e-41
5.08333e-40
1.38327e-38
3.56289e-37
1.11106e-34
1.79099e-33
7.09207e-35
2.19127e-35
2.43877e-36
1.59673e-37
6.06181e-39
8.28119e-41
-1.68394e-65
-3.13345e-63
-1.24757e-60
-6.10035e-59
-8.47523e-58
-4.89068e-56
-1.82506e-54
-5.09043e-53
-2.18459e-51
1.02975e-50
8.61304e-48
8.71131e-45
4.07522e-43
1.33386e-41
4.03364e-40
1.75384e-37
3.24556e-36
6.86663e-39
9.4098e-38
2.01481e-38
1.86369e-39
9.07012e-41
1.51379e-42
3.42367e-70
8.74623e-68
1.13127e-65
9.06158e-64
5.32098e-62
2.90901e-60
1.42601e-58
6.21109e-57
2.42609e-55
9.70029e-54
3.3676e-52
7.53805e-50
6.20252e-48
2.5822e-46
9.29774e-45
3.99748e-43
1.47144e-40
3.501e-39
2.06598e-40
1.2178e-40
1.53877e-41
1.09888e-42
2.4571e-44
3.89969e-76
6.29537e-73
1.77856e-70
2.56371e-68
2.45438e-66
1.89577e-64
1.17853e-62
6.36644e-61
2.5448e-59
1.27037e-57
4.78118e-56
3.53494e-54
3.20724e-51
1.91455e-49
8.1571e-48
3.04552e-46
2.39232e-43
6.73452e-42
1.14283e-43
5.09693e-43
1.11967e-43
1.12184e-44
3.09877e-46
2.25042e-79
7.61532e-77
1.30564e-74
1.52695e-72
1.37745e-70
9.99393e-69
6.43723e-67
3.67387e-65
1.88524e-63
8.94743e-62
3.97436e-60
1.89241e-58
1.57522e-55
2.66354e-53
1.55609e-51
7.19542e-50
4.24251e-48
1.00053e-45
1.32865e-44
1.34172e-45
7.67378e-46
8.92041e-47
3.31771e-48
6.61015e-84
2.93815e-81
6.58274e-79
9.87722e-77
1.12483e-74
1.04454e-72
8.27462e-71
5.77402e-69
3.63553e-67
1.96059e-65
1.14749e-63
5.74842e-62
2.97698e-60
1.25327e-57
1.47248e-55
9.36312e-54
4.99582e-52
7.61611e-49
3.08167e-47
1.86656e-48
3.46684e-48
6.50883e-49
3.13874e-50
4.37792e-89
2.43193e-86
6.70737e-84
1.23347e-81
1.72228e-79
1.96314e-77
1.91163e-75
1.64059e-73
1.26848e-71
9.04557e-70
5.55509e-68
3.75602e-66
2.23276e-64
1.829e-62
3.11985e-59
3.76307e-57
2.77675e-55
1.58527e-52
1.94629e-50
5.1683e-50
1.17633e-50
4.35388e-51
2.57205e-52
4.34913e-94
2.85333e-91
8.92142e-89
1.89301e-86
3.12757e-84
4.30118e-82
5.12051e-80
5.42038e-78
5.20913e-76
4.62549e-74
3.73367e-72
3.07525e-70
2.32433e-68
1.72545e-66
1.47555e-64
1.97504e-61
2.89135e-59
2.71636e-57
3.32425e-54
1.7579e-52
2.90663e-53
2.28931e-53
1.96127e-54
-1.69694e-99
-4.6847e-97
2.73944e-95
4.87438e-92
1.761e-89
4.239e-87
8.05383e-85
1.29397e-82
1.8289e-80
2.33754e-78
2.76322e-76
2.87083e-74
3.29066e-72
3.329e-70
3.33491e-68
3.45134e-66
2.45976e-63
5.16037e-61
4.25882e-57
3.38145e-55
1.32232e-55
1.03749e-55
1.38063e-56
-1.43852e-105
-1.54913e-102
-6.33702e-100
-1.57584e-97
-2.72763e-95
-2.73037e-93
1.94947e-91
1.81319e-88
5.68122e-86
1.33941e-83
2.71495e-81
5.01294e-79
8.19644e-77
1.44741e-74
2.32796e-72
3.74505e-70
6.19441e-68
8.13515e-65
4.84692e-61
2.07195e-58
8.19755e-58
4.15228e-58
9.01364e-59
-3.74225e-112
-4.68304e-109
-2.43881e-106
-1.01382e-103
-3.61308e-101
-1.13081e-98
-3.14425e-96
-7.82289e-94
-1.75288e-91
-3.55426e-89
-6.51986e-87
-1.06212e-84
-1.4375e-82
-4.06094e-80
3.28167e-78
1.6946e-75
8.54746e-73
4.25331e-70
5.83462e-66
5.04761e-62
2.21201e-60
2.27425e-60
5.79719e-61
-3.61587e-123
-1.10438e-120
-8.14793e-118
-8.47244e-115
-8.9861e-112
-8.96643e-109
-8.18432e-106
-6.77714e-103
-5.09836e-100
-3.50266e-97
-2.20831e-94
-1.28097e-91
-6.73807e-89
-3.12999e-86
-2.66692e-83
-5.20787e-83
-2.03117e-80
-1.7201e-79
2.20711e-72
3.39234e-66
4.64882e-63
4.25206e-62
2.73255e-62
1.88042e-10
8.99168e-11
3.2106e-11
6.469e-12
7.96154e-11
4.38199e-11
1.49643e-11
2.53353e-12
2.35581e-11
1.26169e-11
3.679e-12
5.90741e-13
6.45426e-12
3.166e-12
8.02929e-13
1.21201e-13
1.6853e-12
7.70798e-13
1.74995e-13
2.47614e-14
4.1777e-13
1.79973e-13
3.70464e-14
4.92686e-15
9.77102e-14
3.98197e-14
7.43691e-15
9.33501e-16
2.13598e-14
8.22717e-15
1.39336e-15
1.65636e-16
4.32092e-15
1.56878e-15
2.4061e-16
2.71469e-17
7.98246e-16
2.72337e-16
3.77704e-17
4.05497e-18
1.32566e-16
4.23011e-17
5.30117e-18
5.43981e-19
1.94331e-17
5.7592e-18
6.53022e-19
6.45323e-20
2.46687e-18
6.71558e-19
6.92573e-20
6.66995e-21
2.72689e-19
6.55408e-20
6.21867e-21
5.93686e-22
3.16651e-20
5.26839e-21
4.644e-22
4.52499e-23
3.67284e-21
3.41675e-22
2.92479e-23
2.95669e-24
2.5957e-22
1.8323e-23
1.57164e-24
1.68262e-25
1.34425e-23
9.01842e-25
7.58681e-26
8.6325e-27
6.20469e-25
4.03265e-26
3.40751e-27
4.2634e-28
3.40935e-26
1.9965e-27
1.53033e-28
1.9334e-29
1.90511e-27
1.05542e-28
7.91059e-30
8.45077e-31
9.72166e-29
5.12741e-30
3.78427e-31
4.10251e-32
4.49363e-30
2.26983e-31
1.66345e-32
1.84029e-33
1.86776e-31
9.11638e-33
6.62289e-34
7.59507e-35
6.91873e-33
3.28728e-34
2.42283e-35
2.87428e-36
2.28278e-34
1.06837e-35
7.99814e-37
9.94754e-38
6.67397e-36
3.11489e-37
2.38857e-38
3.14246e-39
1.72879e-37
8.10403e-39
6.44474e-40
9.05242e-41
4.00345e-39
1.88541e-40
1.57042e-41
2.37763e-42
8.18806e-41
3.9234e-42
3.45784e-43
5.69798e-44
1.49291e-42
7.3126e-44
6.8905e-45
1.24793e-45
2.41853e-44
1.23624e-45
1.24596e-46
2.50413e-47
3.49246e-46
1.8745e-47
2.05424e-48
4.61981e-49
4.51892e-48
2.57843e-49
3.10974e-50
7.87135e-51
5.27217e-50
3.23166e-51
4.32093e-52
1.25221e-52
5.57443e-52
3.71756e-53
5.56779e-54
2.54961e-54
5.33459e-54
3.96033e-55
6.70439e-56
4.52044e-56
4.76434e-56
3.95028e-57
7.61597e-58
6.93186e-58
3.9626e-58
3.7196e-59
8.25156e-60
9.67473e-60
3.16388e-60
3.35917e-61
8.61498e-62
1.2873e-61
2.72837e-62
3.80139e-63
1.49035e-63
1.56639e-63
3.82158e-63
1.50302e-63
1.2537e-63
1.2537e-63
1.32927e-12
3.74493e-14
1.27538e-15
5.45242e-17
2.01204e-18
6.68319e-20
2.01929e-21
5.5424e-23
1.37126e-24
3.02845e-26
5.90833e-28
1.00377e-29
1.45711e-31
1.75994e-33
1.69749e-35
1.2095e-37
4.93958e-40
1.2154e-42
4.07207e-44
4.45245e-13
1.2345e-14
5.65155e-16
3.01211e-17
1.31202e-18
5.05834e-20
1.72313e-21
5.21102e-23
1.39998e-24
3.33534e-26
6.98501e-28
1.27257e-29
1.98717e-31
2.60383e-33
2.77259e-35
2.28395e-37
1.39872e-39
5.14672e-42
6.05623e-43
1.0117e-13
2.99082e-15
1.56848e-16
8.96933e-18
4.22496e-19
1.77199e-20
6.57916e-22
2.16552e-23
6.31785e-25
1.62736e-26
3.69355e-28
7.3338e-30
1.26076e-31
1.84955e-33
2.26773e-35
2.2435e-37
1.65139e-39
8.08298e-42
1.85501e-43
2.04831e-14
6.23827e-16
3.48366e-17
2.03966e-18
9.84082e-20
4.2074e-21
1.59036e-22
5.32296e-24
1.57716e-25
4.12726e-27
9.49586e-29
1.90723e-30
3.31012e-32
4.89489e-34
6.04696e-36
6.05473e-38
4.57133e-40
2.29481e-42
3.69973e-44
4.03965e-15
1.22549e-16
7.07053e-18
4.16379e-19
2.03386e-20
8.78159e-22
3.34809e-23
1.12892e-24
3.36543e-26
8.84973e-28
2.04355e-29
4.11481e-31
7.15171e-33
1.05781e-34
1.30492e-36
1.30115e-38
9.91208e-41
5.0727e-43
6.10668e-45
7.67141e-16
2.26454e-17
1.31659e-18
7.6717e-20
3.74558e-21
1.61738e-22
6.17063e-24
2.08207e-25
6.20912e-27
1.63264e-28
3.76823e-30
7.5818e-32
1.3167e-33
1.94671e-35
2.40306e-37
2.40286e-39
1.84124e-41
9.5496e-44
8.62456e-46
1.38e-16
3.93109e-18
2.26648e-19
1.29068e-20
6.22817e-22
2.66432e-23
1.00888e-24
3.3822e-26
1.0027e-27
2.62169e-29
6.01798e-31
1.20444e-32
2.08133e-34
3.06397e-36
3.771e-38
3.76844e-40
2.8963e-42
1.51641e-44
1.06263e-46
2.3154e-17
6.36703e-19
3.60721e-20
1.99122e-21
9.41846e-23
3.96195e-24
1.47911e-25
4.89751e-27
1.43579e-28
3.71557e-30
8.44714e-32
1.67542e-33
2.87115e-35
4.19567e-37
5.13413e-39
5.11434e-41
3.93281e-43
2.0721e-45
1.15713e-47
3.57213e-18
9.53181e-20
5.28083e-21
2.81204e-22
1.29641e-23
5.33352e-25
1.95315e-26
6.35773e-28
1.83543e-29
4.68342e-31
1.051e-32
2.05965e-34
3.49088e-36
5.05162e-38
6.13257e-40
6.07758e-42
4.66782e-44
2.46977e-46
1.12479e-48
4.99447e-19
1.30651e-20
7.06474e-22
3.62057e-23
1.62129e-24
6.49987e-26
2.32649e-27
7.4197e-29
2.10275e-30
5.2756e-32
1.16565e-33
2.2519e-35
3.76726e-37
5.38883e-39
6.47998e-41
6.38055e-43
4.8895e-45
2.59523e-47
9.84272e-50
6.23033e-20
1.6246e-21
8.57762e-23
4.23005e-24
1.83709e-25
7.16282e-27
2.50037e-28
7.79578e-30
2.16431e-31
5.32884e-33
1.15726e-34
2.2006e-36
3.62884e-38
5.12515e-40
6.09875e-42
5.96253e-44
4.55747e-46
2.4262e-48
7.81371e-51
6.82138e-21
1.81777e-22
9.3936e-24
4.46553e-25
1.88107e-26
7.12873e-28
2.4246e-29
7.38214e-31
2.00547e-32
4.84058e-34
1.03226e-35
1.93047e-37
3.13568e-39
4.37018e-41
5.1444e-43
4.99351e-45
3.80844e-47
2.03473e-49
5.70211e-52
6.45411e-22
1.8197e-23
9.23773e-25
4.24681e-26
1.73744e-27
6.4031e-29
2.12198e-30
6.30797e-32
1.67639e-33
3.96554e-35
8.30183e-37
1.52662e-38
2.44228e-40
3.35886e-42
3.91212e-44
3.77221e-46
2.87359e-48
1.54268e-50
4.17629e-53
5.21287e-23
1.62637e-24
8.14185e-26
3.63397e-27
1.44681e-28
5.19158e-30
1.67772e-31
4.87204e-33
1.26718e-34
2.93882e-36
6.04209e-38
1.09293e-39
1.7228e-41
2.33925e-43
2.69765e-45
2.58669e-47
1.97132e-49
1.06554e-51
2.91493e-54
3.56922e-24
1.30023e-25
6.43494e-27
2.79913e-28
1.0869e-29
3.80368e-31
1.20024e-32
3.40881e-34
8.68596e-36
1.97687e-37
3.99511e-39
7.11483e-41
1.10602e-42
1.4841e-44
1.6965e-46
1.62018e-48
1.23794e-50
6.75478e-53
1.86961e-55
2.06818e-25
9.34421e-27
4.5704e-28
1.94387e-29
7.37717e-31
2.52271e-32
7.78657e-34
2.16641e-35
5.41644e-37
1.21152e-38
2.40998e-40
4.23102e-42
6.49465e-44
8.62353e-46
9.78643e-48
9.32725e-50
7.16427e-52
3.95853e-54
1.10942e-56
1.06775e-26
6.06224e-28
2.91963e-29
1.21927e-30
4.53279e-32
1.51799e-33
4.59324e-35
1.25457e-36
3.08389e-38
6.79187e-40
1.3322e-41
2.30951e-43
3.50618e-45
4.61428e-47
5.20845e-49
4.96601e-51
3.84657e-53
2.15978e-55
6.14144e-58
6.21789e-28
3.60914e-29
1.70617e-30
6.92815e-32
2.52343e-33
8.30446e-35
2.47142e-36
6.64394e-38
1.60957e-39
3.49825e-41
6.78006e-43
1.16291e-44
1.74934e-46
2.28616e-48
2.57232e-50
2.46042e-52
1.92874e-54
1.10469e-56
3.19292e-59
3.66941e-29
2.11694e-30
9.61602e-32
3.69283e-33
1.30196e-34
4.17417e-36
1.21577e-37
3.22767e-39
7.73371e-41
1.66318e-42
3.19257e-44
5.42944e-46
8.10933e-48
1.05463e-49
1.18575e-51
1.14138e-53
9.09087e-56
5.33279e-58
1.5689e-60
2.04917e-30
1.20108e-31
5.32831e-33
1.97186e-34
6.61171e-36
2.01126e-37
5.62202e-39
1.46386e-40
3.44208e-42
7.32808e-44
1.39728e-45
2.36259e-47
3.51161e-49
4.55496e-51
5.13121e-53
4.98787e-55
4.05379e-57
2.44551e-59
7.3288e-62
1.07627e-31
6.47039e-33
2.83169e-34
1.01931e-35
3.30124e-37
9.69261e-39
2.60882e-40
6.50439e-42
1.46778e-43
3.0634e-45
5.76697e-47
9.64006e-49
1.42706e-50
1.85114e-52
2.09589e-54
2.06549e-56
1.72083e-58
1.07193e-60
3.27167e-63
5.27198e-33
3.29326e-34
1.43138e-35
5.04125e-37
1.59062e-38
4.54528e-40
1.19002e-41
2.88415e-43
6.33832e-45
1.28162e-46
2.33886e-48
3.8025e-50
5.56933e-52
7.20027e-54
8.17962e-56
8.17718e-58
7.00206e-60
4.51706e-62
1.40274e-64
2.40718e-34
1.57655e-35
6.86102e-37
2.38155e-38
7.36342e-40
2.05819e-41
5.27084e-43
1.25055e-44
2.69279e-46
5.33355e-48
9.5468e-50
1.5258e-51
2.19219e-53
2.7922e-55
3.15499e-57
3.18248e-59
2.79535e-61
1.86789e-63
5.90804e-66
1.01777e-35
7.07185e-37
3.10828e-38
1.07152e-39
3.26837e-41
8.98927e-43
2.26315e-44
5.27805e-46
1.11761e-47
2.17929e-49
3.84486e-51
6.0661e-53
8.6154e-55
1.08907e-56
1.23056e-58
1.25621e-60
1.13261e-62
7.83425e-65
2.52307e-67
3.98036e-37
2.96447e-38
1.32777e-39
4.58188e-41
1.38827e-42
3.77988e-44
9.40527e-46
2.16628e-47
4.52964e-49
8.72469e-51
1.52153e-52
2.37562e-54
3.34622e-56
4.21058e-58
4.76841e-60
4.93386e-62
4.56974e-64
3.27265e-66
1.07245e-68
1.45066e-38
1.15578e-39
5.34091e-41
1.85966e-42
5.63605e-44
1.52832e-45
3.77852e-47
8.63548e-49
1.79048e-50
3.41906e-52
5.91282e-54
9.16155e-56
1.28261e-57
1.60933e-59
1.82917e-61
1.92018e-63
1.82801e-65
1.35565e-67
4.51756e-70
5.11945e-40
4.20293e-41
2.02242e-42
7.16129e-44
2.18576e-45
5.93837e-47
1.46643e-48
3.34083e-50
6.89667e-52
1.31036e-53
2.25426e-55
3.47569e-57
4.84759e-59
6.07671e-61
6.94223e-63
7.40122e-65
7.24624e-67
5.56536e-69
1.88479e-71
1.70231e-41
1.4316e-42
7.2149e-44
2.61759e-45
8.09907e-47
2.21731e-48
5.49682e-50
1.25395e-51
2.58756e-53
4.90873e-55
8.42628e-57
1.29624e-58
1.80512e-60
2.26488e-62
2.60445e-64
2.82267e-66
2.84358e-68
2.262e-70
7.78065e-73
5.19837e-43
4.58155e-44
2.42924e-45
9.09289e-47
2.86969e-48
7.96023e-50
1.99071e-51
4.56688e-53
9.45598e-55
1.7971e-56
3.08722e-58
4.75046e-60
6.61956e-62
8.32781e-64
9.65228e-66
1.06442e-67
1.10388e-69
9.0952e-72
3.17562e-74
1.45849e-44
1.41937e-45
7.73799e-47
3.0077e-48
9.73703e-50
2.7506e-51
6.97081e-53
1.61475e-54
3.36696e-56
6.43097e-58
1.10871e-59
1.71061e-61
2.39004e-63
3.01994e-65
3.53249e-67
3.96707e-69
4.23711e-71
3.61604e-73
1.28081e-75
3.76471e-46
4.09884e-47
2.34179e-48
9.49718e-50
3.16994e-51
9.16201e-53
2.36296e-54
5.54805e-56
1.16894e-57
2.25064e-59
3.90422e-61
6.05371e-63
8.49717e-65
1.08004e-66
1.27649e-68
1.46103e-70
1.60773e-72
1.42115e-74
5.10363e-77
8.96069e-48
1.10348e-48
6.75327e-50
2.87117e-51
9.92496e-53
2.94743e-54
7.76615e-56
1.85473e-57
3.96113e-59
7.70946e-61
1.34897e-62
2.1065e-64
2.9757e-66
3.81024e-68
4.55518e-70
5.31744e-72
6.03056e-74
5.52113e-76
2.00914e-78
1.97499e-49
2.77794e-50
1.86351e-51
8.33706e-53
2.99649e-54
9.1782e-56
2.47944e-57
6.04252e-59
1.31191e-60
2.58771e-62
4.57746e-64
7.21279e-66
1.0271e-67
1.32664e-69
1.60585e-71
1.91308e-73
2.2367e-75
2.12073e-77
7.81594e-80
4.24622e-51
6.75661e-52
4.93871e-53
2.33285e-54
8.74888e-56
2.77345e-57
7.70625e-59
1.92209e-60
4.25354e-62
8.52292e-64
1.52729e-65
2.43269e-67
3.49725e-69
4.56202e-71
5.59614e-73
6.80741e-75
8.20662e-77
8.0575e-79
3.00605e-81
9.09043e-53
1.60414e-53
1.26142e-54
6.31144e-56
2.47781e-57
8.15491e-59
2.33739e-60
5.98246e-62
1.35263e-63
2.75905e-65
5.01785e-67
8.09204e-69
1.17599e-70
1.55089e-72
1.92938e-74
2.39756e-76
2.98072e-78
3.03004e-80
1.14378e-82
1.8539e-54
3.65717e-55
3.11514e-56
1.6565e-57
6.82884e-59
2.34006e-60
6.93695e-62
1.82628e-63
4.22778e-65
8.79524e-67
1.62607e-68
2.65865e-70
3.91033e-72
5.21831e-74
6.58792e-76
8.36572e-78
1.07263e-79
1.1287e-81
4.30915e-84
3.59436e-56
8.0325e-57
7.46155e-58
4.23213e-59
1.83751e-60
6.57343e-62
2.02018e-63
5.48218e-65
1.30182e-66
2.76663e-68
5.2071e-70
8.64217e-72
1.2877e-73
1.74022e-75
2.23059e-77
2.89518e-79
3.82819e-81
4.16873e-83
1.60906e-85
6.60783e-58
1.70361e-58
1.73902e-59
1.05618e-60
4.84394e-62
1.81346e-63
5.79e-65
1.62257e-66
3.9587e-68
8.60649e-70
1.651e-71
2.78439e-73
4.20657e-75
5.76058e-77
7.4998e-79
9.95054e-81
1.35661e-82
1.52819e-84
5.96145e-87
1.11435e-59
3.49749e-60
3.95605e-61
2.58322e-62
1.25503e-63
4.92827e-65
1.63779e-66
4.74727e-68
1.19163e-69
2.65343e-71
5.19344e-73
8.90786e-75
1.36551e-76
1.89591e-78
2.50783e-80
3.4011e-82
4.77913e-84
5.56592e-86
2.19385e-88
1.7354e-61
6.95306e-62
8.79995e-63
6.20612e-64
3.20316e-65
1.32223e-66
4.58179e-68
1.3757e-69
3.55724e-71
8.12148e-73
1.62335e-74
2.83413e-76
4.41133e-78
6.21328e-80
8.3527e-82
1.15776e-83
1.67565e-85
2.01574e-87
7.7566e-90
2.57799e-63
1.30611e-63
1.86308e-64
1.43032e-65
7.95075e-67
3.47719e-68
1.26343e-69
3.94833e-71
1.05381e-72
2.46977e-74
5.04677e-76
8.97675e-78
1.41998e-79
2.0306e-81
2.77623e-83
3.93385e-85
5.8605e-87
7.2664e-89
2.81236e-91
7.32173e-64
1.13247e-64
8.34996e-66
4.46941e-67
1.9034e-68
6.77497e-70
2.11029e-71
5.64868e-73
1.50258e-74
3.63746e-76
7.63857e-78
1.39045e-79
2.24382e-81
3.26862e-83
4.5586e-85
6.62281e-87
1.01867e-88
1.36041e-90
2.81236e-91
)
;

boundaryField
{
    leftWall
    {
        type            zeroGradient;
    }
    rightWall
    {
        type            zeroGradient;
    }
    lowerWall
    {
        type            zeroGradient;
    }
    atmosphere
    {
        type            inletOutlet;
        inletValue      uniform 0;
        value           nonuniform List<scalar> 
46
(
0
0
0
0
0
0
0
0
0
0
0
0
0
0
0
0
0
0
0
0
4.64882e-63
4.25206e-62
2.73255e-62
3.82158e-63
1.50302e-63
1.2537e-63
1.2537e-63
7.32173e-64
1.13247e-64
8.34996e-66
4.46941e-67
1.9034e-68
6.77497e-70
2.11029e-71
5.64868e-73
1.50258e-74
3.63746e-76
7.63857e-78
1.39045e-79
2.24382e-81
3.26862e-83
4.5586e-85
6.62281e-87
1.01867e-88
1.36041e-90
2.81236e-91
)
;
    }
    defaultFaces
    {
        type            empty;
    }
}


// ************************************************************************* //
