/*--------------------------------*- C++ -*----------------------------------*\
| =========                 |                                                 |
| \\      /  F ield         | OpenFOAM: The Open Source CFD Toolbox           |
|  \\    /   O peration     | Version:  v2012                                 |
|   \\  /    A nd           | Website:  www.openfoam.com                      |
|    \\/     M anipulation  |                                                 |
\*---------------------------------------------------------------------------*/
FoamFile
{
    version     2.0;
    format      ascii;
    class       surfaceScalarField;
    location    "0.05";
    object      alphaPhi0.water;
}
// * * * * * * * * * * * * * * * * * * * * * * * * * * * * * * * * * * * * * //

dimensions      [0 3 -1 0 0 0 0];
oriented        oriented;


internalField   nonuniform List<scalar> 
4432
(
1.74853e-06
-1.74853e-06
4.61665e-06
-2.86812e-06
7.98523e-06
-3.36858e-06
1.14682e-05
-3.483e-06
1.50114e-05
-3.54321e-06
1.87245e-05
-3.71302e-06
2.27812e-05
-4.05674e-06
2.74232e-05
-4.642e-06
3.30046e-05
-5.58137e-06
4.03575e-05
-7.35294e-06
5.03188e-05
-9.96131e-06
6.10167e-05
-1.06979e-05
6.97361e-05
-1.08444e-05
4.36721e-05
-8.35845e-06
3.35943e-06
-4.33573e-07
1.19152e-06
4.6751e-08
3.23297e-07
1.57885e-07
6.13623e-08
7.71022e-08
8.91375e-09
1.65677e-08
9.7032e-10
2.8914e-09
1.03048e-10
4.0864e-10
2.39217e-11
4.4906e-11
1.59626e-12
2.27244e-06
-4.02099e-06
5.03843e-06
-5.63411e-06
8.06286e-06
-6.39301e-06
1.12276e-05
-6.6477e-06
1.45057e-05
-6.82134e-06
1.79706e-05
-7.17785e-06
2.17568e-05
-7.84303e-06
2.60539e-05
-8.93912e-06
3.1134e-05
-1.06614e-05
3.73806e-05
-1.35996e-05
4.4935e-05
-1.75157e-05
5.43717e-05
-2.01346e-05
4.97231e-05
-2.04775e-05
1.04942e-05
-8.46746e-06
1.29296e-06
-7.64401e-07
3.29285e-07
-1.05658e-08
8.27973e-08
4.8162e-08
6.61456e-09
1.65279e-08
8.38141e-10
3.44386e-09
7.39423e-11
8.51657e-10
1.87342e-11
1.82347e-10
1.1067e-11
3.15457e-11
2.02122e-12
2.64851e-06
-6.66951e-06
5.27093e-06
-8.25652e-06
7.93265e-06
-9.05473e-06
1.07155e-05
-9.43056e-06
1.36491e-05
-9.7549e-06
1.67873e-05
-1.03161e-05
2.02242e-05
-1.12799e-05
2.40914e-05
-1.28064e-05
2.85653e-05
-1.51352e-05
3.37789e-05
-1.88132e-05
3.97274e-05
-2.34642e-05
4.70978e-05
-2.75051e-05
2.97272e-05
-2.60424e-05
1.89325e-06
-5.30138e-06
5.50696e-07
-4.43636e-07
1.57587e-07
2.28777e-08
3.83317e-08
2.86725e-08
6.3561e-09
7.32815e-09
4.95319e-10
1.2886e-09
-8.08722e-12
2.72709e-10
-4.50725e-12
5.99274e-11
4.23511e-12
1.2896e-11
1.41851e-12
2.80872e-06
-9.47822e-06
5.33307e-06
-1.07809e-05
7.72487e-06
-1.14465e-05
1.0193e-05
-1.18986e-05
1.28211e-05
-1.2383e-05
1.56596e-05
-1.31547e-05
1.87723e-05
-1.43925e-05
2.22425e-05
-1.62766e-05
2.61626e-05
-1.90553e-05
3.0533e-05
-2.31835e-05
3.52853e-05
-2.82165e-05
4.07558e-05
-3.29756e-05
1.74995e-05
-2.81563e-05
9.78744e-07
-3.67721e-06
2.43432e-07
-2.8638e-07
5.47826e-08
4.96413e-08
1.21187e-08
2.46593e-08
2.34367e-09
5.35679e-09
2.95526e-10
9.02964e-10
1.45607e-11
1.54541e-10
-6.96376e-13
2.80413e-11
1.75262e-12
6.04164e-12
9.26687e-13
2.80585e-06
-1.22841e-05
5.26121e-06
-1.32362e-05
7.4857e-06
-1.3671e-05
9.73651e-06
-1.41495e-05
1.21322e-05
-1.47787e-05
1.47271e-05
-1.57496e-05
1.75667e-05
-1.72321e-05
2.06986e-05
-1.94085e-05
2.41552e-05
-2.2512e-05
2.78677e-05
-2.68961e-05
3.17076e-05
-3.20564e-05
3.57902e-05
-3.70582e-05
1.11498e-05
-2.8588e-05
5.60332e-07
-3.01497e-06
1.20912e-07
-2.13781e-07
2.13962e-08
6.10918e-08
3.96048e-09
2.12862e-08
7.2907e-10
3.92182e-09
9.83164e-11
6.12915e-10
6.08931e-12
9.52875e-11
-6.39272e-14
1.53022e-11
8.0603e-13
3.18132e-12
6.0022e-13
2.71414e-06
-1.49982e-05
5.11645e-06
-1.56386e-05
7.26336e-06
-1.58179e-05
9.39419e-06
-1.62803e-05
1.16389e-05
-1.70234e-05
1.40574e-05
-1.81681e-05
1.66865e-05
-1.98612e-05
1.95509e-05
-2.22728e-05
2.26462e-05
-2.56074e-05
2.58703e-05
-3.01201e-05
2.90538e-05
-3.52399e-05
3.22292e-05
-4.02336e-05
7.909e-06
-2.88092e-05
3.6384e-07
-2.80099e-06
6.77915e-08
-1.74464e-07
9.54284e-09
6.40544e-08
1.53735e-09
1.82052e-08
2.48738e-10
3.05437e-09
3.17965e-11
4.40765e-10
2.16024e-12
6.29734e-11
1.32937e-13
9.38793e-12
4.42737e-13
1.84489e-12
3.96306e-13
2.60542e-06
-1.76036e-05
4.97854e-06
-1.80117e-05
7.12269e-06
-1.79621e-05
9.22064e-06
-1.83782e-05
1.13948e-05
-1.91975e-05
1.37092e-05
-2.04825e-05
1.61979e-05
-2.235e-05
1.88742e-05
-2.49491e-05
2.17152e-05
-2.84483e-05
2.46104e-05
-3.30153e-05
2.73568e-05
-3.79862e-05
2.99605e-05
-4.28373e-05
6.41748e-06
-2.96705e-05
2.61929e-07
-2.81942e-06
4.23996e-08
-1.49956e-07
5.01389e-09
6.25981e-08
7.00314e-10
1.55407e-08
1.03905e-10
2.45272e-09
1.26286e-11
3.37534e-10
1.02331e-12
4.54619e-11
2.06438e-13
6.39907e-12
2.81353e-13
1.1494e-12
2.56106e-13
2.53194e-06
-2.01355e-05
4.91611e-06
-2.03959e-05
7.11533e-06
-2.01613e-05
9.24963e-06
-2.05125e-05
1.14245e-05
-2.13724e-05
1.37049e-05
-2.27629e-05
1.61255e-05
-2.47706e-05
1.86944e-05
-2.7518e-05
2.13848e-05
-3.11388e-05
2.40842e-05
-3.57146e-05
2.65867e-05
-4.04888e-05
2.88886e-05
-4.51392e-05
5.80758e-06
-3.09154e-05
1.98891e-07
-2.85877e-06
2.68509e-08
-1.33342e-07
2.83996e-09
5.73431e-08
3.72565e-10
1.30606e-08
5.35477e-11
1.98556e-09
6.73837e-12
2.66723e-10
7.58952e-13
3.48643e-11
2.05466e-13
4.73858e-12
1.71695e-13
7.69874e-13
1.9297e-13
1.60421e-28
-1.81677e-27
7.16734e-30
-6.00402e-29
1.58341e-30
-2.68331e-30
4.05604e-32
-4.66712e-31
5.63887e-34
-4.10929e-33
5.19735e-36
1.06706e-36
1.89623e-37
1.1608e-37
5.65337e-39
5.91366e-39
1.55107e-40
2.25709e-40
3.80128e-42
7.28529e-42
8.17955e-44
2.04421e-43
1.51429e-45
5.01228e-45
2.34792e-47
1.06437e-46
2.92765e-49
1.93379e-48
2.74818e-51
2.93089e-50
1.71903e-53
3.52299e-52
7.16545e-56
2.96432e-54
1.60727e-56
1.2997e-56
3.09555e-59
1.72649e-26
-8.08223e-26
5.73814e-28
-7.87749e-27
9.89904e-29
-2.38726e-28
2.60093e-30
-2.95806e-29
3.3195e-32
-2.5609e-31
3.68221e-34
3.6829e-34
1.3758e-35
3.3714e-35
3.65043e-37
1.61513e-36
9.55789e-39
5.8539e-38
2.23356e-40
1.79408e-39
4.58454e-42
4.78022e-41
8.10758e-44
1.11235e-42
1.20424e-45
2.24622e-44
1.44617e-47
3.88494e-46
1.32271e-49
5.6196e-48
8.3095e-52
6.47879e-50
3.07185e-54
5.35312e-52
2.04089e-56
2.56069e-54
4.40878e-57
9.04165e-25
-5.45542e-24
2.21205e-26
-4.34035e-25
3.16382e-27
-1.14873e-26
8.62929e-29
-9.65213e-28
1.10193e-30
-8.13535e-30
1.24385e-32
2.59103e-32
3.96748e-34
1.7917e-33
1.04294e-35
7.77553e-35
2.532e-37
2.59424e-36
5.4811e-39
7.33598e-38
1.04213e-40
1.80407e-39
1.70867e-42
3.87438e-41
2.35835e-44
7.22405e-43
2.6458e-46
1.15443e-44
2.36737e-48
1.54694e-46
1.6634e-50
1.66326e-48
7.43125e-53
1.31461e-50
6.66484e-55
6.56061e-53
1.49995e-55
2.89164e-23
-2.10081e-22
5.988e-25
-1.4639e-23
6.69568e-26
-3.44526e-25
1.91195e-27
-2.0603e-26
2.36251e-29
-1.61545e-28
3.00982e-31
1.09548e-30
8.74762e-33
6.10498e-32
2.16644e-34
2.40659e-33
4.90255e-36
7.42781e-35
9.88318e-38
1.94998e-36
1.74956e-39
4.45489e-38
2.67224e-41
8.8889e-40
3.52976e-43
1.54071e-41
4.05388e-45
2.29262e-43
3.74022e-47
2.86315e-45
2.58801e-49
2.88412e-47
1.21033e-51
2.18368e-49
1.38311e-53
1.11052e-51
2.98034e-54
6.60183e-22
-5.38337e-21
1.27652e-23
-3.46955e-22
1.02622e-24
-7.4744e-24
3.15042e-26
-3.17873e-25
3.64733e-28
-2.10534e-27
6.13093e-30
3.01682e-29
1.66595e-31
1.6358e-30
3.90974e-33
5.93989e-32
8.36377e-35
1.72053e-33
1.59228e-36
4.2562e-35
2.76081e-38
9.1706e-37
4.24638e-40
1.72895e-38
5.59168e-42
2.83328e-40
6.15581e-44
3.97844e-42
5.47664e-46
4.68789e-44
3.71815e-48
4.47807e-46
1.7668e-50
3.27227e-48
2.02118e-52
1.66803e-50
4.80193e-53
1.19517e-20
-1.03989e-19
2.32005e-22
-6.56639e-21
1.08047e-23
-1.2712e-22
3.78539e-25
-3.58482e-24
4.80232e-27
-1.46412e-26
1.16813e-28
7.27621e-28
2.98657e-30
3.84679e-29
6.83141e-32
1.31577e-30
1.44966e-33
3.65616e-32
2.83931e-35
8.71917e-34
4.89213e-37
1.8149e-35
7.32409e-39
3.30305e-37
9.38254e-41
5.21556e-39
1.00698e-42
7.05666e-41
8.76951e-45
8.01799e-43
5.88163e-47
7.41013e-45
2.79866e-49
5.29284e-47
2.69956e-51
2.69256e-49
7.82396e-52
2.06937e-19
-4.33373e-18
3.74421e-21
-4.16017e-19
8.87252e-23
-2.97736e-21
2.8106e-24
-3.44334e-23
7.58954e-26
6.13138e-26
2.12249e-27
1.79757e-26
5.35747e-29
8.3235e-28
1.26529e-30
2.76193e-29
2.80622e-32
7.58093e-31
5.50118e-34
1.79421e-32
9.46337e-36
3.70675e-34
1.41387e-37
6.68873e-36
1.80851e-39
1.04718e-37
1.94e-41
1.40489e-39
1.69124e-43
1.58366e-41
1.13854e-45
1.4543e-43
5.4521e-48
1.03576e-45
4.04263e-50
5.4343e-48
1.51659e-50
5.11203e-18
-8.49548e-17
4.83721e-20
-2.22242e-18
1.11967e-21
-5.20942e-20
3.6442e-23
-6.82393e-22
1.10385e-24
3.64339e-24
3.17967e-26
3.23459e-25
8.27232e-28
1.40638e-26
2.0891e-29
4.68478e-28
4.77991e-31
1.31229e-29
9.64132e-33
3.17923e-31
1.70501e-34
6.72542e-33
2.61859e-36
1.24234e-34
3.44389e-38
1.99123e-36
3.79956e-40
2.73527e-38
3.40663e-42
3.15792e-40
2.3558e-44
2.97109e-42
1.1879e-46
2.16611e-44
7.3331e-49
1.16319e-46
3.22219e-49
5.21631e-06
-2.53518e-05
1.04147e-05
-2.55943e-05
1.53456e-05
-2.50922e-05
2.00882e-05
-2.52551e-05
2.48072e-05
-2.60914e-05
2.9645e-05
-2.76007e-05
3.46765e-05
-2.98021e-05
3.99043e-05
-3.27457e-05
4.52527e-05
-3.64872e-05
5.05108e-05
-4.09728e-05
5.57187e-05
-4.56967e-05
6.02964e-05
-4.97168e-05
1.03008e-05
-3.08476e-05
3.21171e-07
-2.2564e-06
2.63282e-08
-7.67454e-08
2.02478e-09
4.05979e-08
2.51414e-10
8.21252e-09
3.85593e-11
1.19527e-09
5.41698e-12
1.56615e-10
7.63414e-13
1.98782e-11
2.10292e-13
2.55709e-12
1.16254e-13
3.65576e-13
6.0897e-14
5.80824e-14
5.04411e-06
-3.03959e-05
1.00702e-05
-3.06204e-05
1.4878e-05
-2.99e-05
1.9502e-05
-2.98791e-05
2.40423e-05
-3.06317e-05
2.85979e-05
-3.21562e-05
3.32164e-05
-3.44206e-05
3.78783e-05
-3.74076e-05
4.24954e-05
-4.11043e-05
4.6922e-05
-4.53994e-05
5.1031e-05
-4.98057e-05
5.44113e-05
-5.30971e-05
5.55405e-06
-2.86194e-05
1.93574e-07
-1.64234e-06
5.74077e-09
-2.8072e-08
-2.21486e-10
2.40979e-08
-3.20901e-11
4.49078e-09
2.3453e-12
6.30118e-10
1.33596e-12
8.16577e-11
3.48871e-13
1.02833e-11
1.20763e-13
1.26746e-12
5.98892e-14
1.60399e-13
2.30297e-14
1.60002e-14
4.73264e-06
-3.51285e-05
9.4059e-06
-3.52937e-05
1.38797e-05
-3.43738e-05
1.81792e-05
-3.41786e-05
2.23671e-05
-3.48197e-05
2.65014e-05
-3.62904e-05
3.05989e-05
-3.85181e-05
3.46228e-05
-4.14316e-05
3.84832e-05
-4.49647e-05
4.20492e-05
-4.89653e-05
4.51906e-05
-5.2947e-05
4.77255e-05
-5.56321e-05
2.78733e-06
-2.58121e-05
1.09706e-07
-1.26616e-06
2.25557e-09
-2.81788e-09
-4.24542e-10
1.48696e-08
-8.34163e-11
2.40299e-09
-1.09107e-11
3.06007e-10
-1.22003e-12
3.6823e-11
-9.5334e-14
4.34003e-12
1.8249e-14
4.87658e-13
1.79157e-14
5.601e-14
6.8905e-15
4.3268e-15
4.34475e-06
-3.94733e-05
8.59867e-06
-3.95477e-05
1.26692e-05
-3.84443e-05
1.65747e-05
-3.80841e-05
2.0354e-05
-3.8599e-05
2.40355e-05
-3.99719e-05
2.76145e-05
-4.20971e-05
3.10453e-05
-4.48624e-05
3.42445e-05
-4.81639e-05
3.71051e-05
-5.1826e-05
3.95389e-05
-5.53808e-05
4.15204e-05
-5.76136e-05
1.24682e-06
-2.30068e-05
5.94992e-08
-9.8242e-07
4.42675e-10
5.96628e-09
-3.13763e-10
9.1831e-09
-5.20882e-11
1.28887e-09
-6.55749e-12
1.47065e-10
-7.27714e-13
1.60767e-11
-5.62935e-14
1.71912e-12
4.82354e-15
1.75742e-13
5.36796e-15
1.87117e-14
2.0759e-15
1.05215e-15
3.93995e-06
-4.34133e-05
7.76743e-06
-4.33751e-05
1.14253e-05
-4.21022e-05
1.49259e-05
-4.15848e-05
1.82933e-05
-4.19663e-05
2.15373e-05
-4.3216e-05
2.46409e-05
-4.52006e-05
2.75567e-05
-4.77782e-05
3.02125e-05
-5.08197e-05
3.25262e-05
-5.41397e-05
3.4446e-05
-5.73006e-05
3.60207e-05
-5.91883e-05
4.65724e-07
-2.03577e-05
3.16311e-08
-8.16327e-07
-4.95274e-10
7.89209e-09
-2.41219e-10
5.48572e-09
-3.28271e-11
6.7221e-10
-3.69039e-12
6.86025e-11
-3.68109e-13
6.76652e-12
-2.36757e-14
6.47434e-13
9.43798e-16
6.32303e-14
1.72546e-15
6.05111e-15
6.45857e-16
2.44474e-16
3.54117e-06
-4.69544e-05
6.95758e-06
-4.67915e-05
1.02177e-05
-4.53623e-05
1.33282e-05
-4.46953e-05
1.63035e-05
-4.49416e-05
1.91434e-05
-4.60559e-05
2.1825e-05
-4.78822e-05
2.43035e-05
-5.02567e-05
2.65184e-05
-5.30346e-05
2.84086e-05
-5.60298e-05
2.99467e-05
-5.88387e-05
3.12084e-05
-6.045e-05
2.62267e-07
-1.79184e-05
1.64328e-08
-7.48886e-07
-6.37506e-10
7.16911e-09
-1.58029e-10
3.20771e-09
-1.87081e-11
3.42537e-10
-1.89721e-12
3.10603e-11
-1.66761e-13
2.73859e-12
-9.08394e-15
2.34215e-13
1.20139e-15
2.12805e-14
5.88643e-16
2.04811e-15
1.90383e-16
5.13688e-17
3.1577e-06
-5.01122e-05
6.18577e-06
-4.98196e-05
9.07182e-06
-4.82484e-05
1.18169e-05
-4.74404e-05
1.44293e-05
-4.7554e-05
1.69033e-05
-4.85299e-05
1.92145e-05
-5.01934e-05
2.13226e-05
-5.23648e-05
2.31783e-05
-5.48903e-05
2.4736e-05
-5.75875e-05
2.59837e-05
-6.00864e-05
2.70016e-05
-6.14679e-05
2.29248e-07
-1.56966e-05
8.24365e-09
-6.50577e-07
-5.40735e-10
5.64828e-09
-9.51695e-11
1.84058e-09
-9.87787e-12
1.71024e-10
-8.99261e-13
1.36704e-11
-6.93485e-14
1.06598e-12
-3.30709e-15
8.38385e-14
9.99791e-16
6.52013e-15
1.76801e-16
6.5766e-16
5.09379e-17
9.02134e-18
2.79443e-06
-5.29066e-05
5.45959e-06
-5.24848e-05
7.9976e-06
-5.07864e-05
1.04049e-05
-4.98477e-05
1.26853e-05
-4.98344e-05
1.48304e-05
-5.0675e-05
1.68168e-05
-5.21797e-05
1.86096e-05
-5.41576e-05
2.0169e-05
-5.64498e-05
2.14616e-05
-5.888e-05
2.24839e-05
-6.11087e-05
2.33115e-05
-6.22956e-05
2.01553e-07
-1.36832e-05
3.95688e-09
-5.30637e-07
-3.96358e-10
4.12404e-09
-5.46272e-11
1.04009e-09
-4.95581e-12
8.33883e-11
-3.99516e-13
5.82458e-12
-2.70467e-14
3.9724e-13
-1.15829e-15
2.85748e-14
3.49347e-16
2.13731e-15
4.46038e-17
1.82182e-16
1.27058e-17
1.36485e-18
2.4538e-06
-5.53604e-05
4.78228e-06
-5.48132e-05
6.99848e-06
-5.30026e-05
9.09512e-06
-5.19443e-05
1.10731e-05
-5.18124e-05
1.29229e-05
-5.25249e-05
1.46232e-05
-5.388e-05
1.61449e-05
-5.56792e-05
1.74566e-05
-5.77615e-05
1.85343e-05
-5.99577e-05
1.93797e-05
-6.19541e-05
2.00601e-05
-6.29759e-05
1.62193e-07
-1.18644e-05
1.76147e-09
-4.13292e-07
-2.70379e-10
2.86958e-09
-3.02563e-11
5.78376e-10
-2.38142e-12
3.9477e-11
-1.66608e-13
2.37786e-12
-9.67235e-15
1.41274e-13
3.84911e-16
8.8095e-15
1.04552e-16
6.97334e-16
8.60649e-18
4.66066e-17
2.93274e-18
1.43271e-19
2.13687e-06
-5.74972e-05
4.15487e-06
-5.68312e-05
6.07454e-06
-5.49222e-05
7.88602e-06
-5.37558e-05
9.58823e-06
-5.35146e-05
1.11718e-05
-5.41084e-05
1.26181e-05
-5.53263e-05
1.39035e-05
-5.69645e-05
1.50045e-05
-5.88625e-05
1.59054e-05
-6.08587e-05
1.66121e-05
-6.26607e-05
1.71815e-05
-6.35454e-05
1.26116e-07
-1.02248e-05
6.7301e-10
-3.12733e-07
-1.78862e-10
1.9325e-09
-1.61956e-11
3.12678e-10
-1.09153e-12
1.79664e-11
-6.53758e-14
9.17492e-13
-3.33345e-15
4.80391e-14
1.96059e-16
2.57766e-15
2.57386e-17
1.81534e-16
1.60826e-18
1.08325e-17
6.13799e-19
-1.3602e-21
1.84462e-06
-5.93418e-05
3.57781e-06
-5.85645e-05
5.22455e-06
-5.6569e-05
6.77372e-06
-5.53049e-05
8.22339e-06
-5.49642e-05
9.56491e-06
-5.545e-05
1.07827e-05
-5.65441e-05
1.18584e-05
-5.80402e-05
1.27762e-05
-5.97803e-05
1.35292e-05
-6.16116e-05
1.41281e-05
-6.32596e-05
1.46198e-05
-6.40371e-05
9.62649e-08
-8.74943e-06
1.66617e-10
-2.30915e-07
-1.12377e-10
1.27095e-09
-8.2998e-12
1.63378e-10
-4.71926e-13
7.74622e-12
-2.38113e-14
3.27924e-13
-5.47783e-16
1.46384e-14
5.60155e-17
7.605e-16
4.53773e-18
4.27269e-17
2.6886e-19
2.25037e-18
1.1417e-19
-5.44686e-21
1.57877e-06
-6.09206e-05
3.05234e-06
-6.0038e-05
4.44736e-06
-5.7964e-05
5.75375e-06
-5.66113e-05
6.97002e-06
-5.61805e-05
8.08897e-06
-5.65689e-05
9.09786e-06
-5.7553e-05
9.98313e-06
-5.89255e-05
1.07365e-05
-6.05336e-05
1.13616e-05
-6.22367e-05
1.18785e-05
-6.37766e-05
1.23261e-05
-6.44846e-05
7.23745e-08
-7.42896e-06
-4.4851e-11
-1.66425e-07
-6.69465e-11
8.20715e-10
-4.02993e-12
8.25131e-11
-1.89098e-13
3.11087e-12
-8.01864e-15
1.04828e-13
3.54395e-17
3.68519e-15
1.32776e-17
1.93904e-16
6.78125e-19
8.66742e-18
3.85825e-20
4.04885e-19
1.83651e-20
-1.60467e-21
1.3427e-06
-6.22631e-05
2.58288e-06
-6.1278e-05
3.74395e-06
-5.91249e-05
4.82243e-06
-5.76897e-05
5.8199e-06
-5.71779e-05
6.73132e-06
-5.74802e-05
7.54601e-06
-5.83676e-05
8.25383e-06
-5.96332e-05
8.85355e-06
-6.11332e-05
9.36227e-06
-6.27452e-05
9.81764e-06
-6.42317e-05
1.02562e-05
-6.49228e-05
5.33962e-08
-6.24824e-06
-1.08902e-10
-1.1709e-07
-3.77544e-11
5.34014e-10
-1.82536e-12
3.99741e-11
-6.83696e-14
1.15206e-12
-2.22172e-15
2.87802e-14
2.03745e-17
8.80151e-16
2.256e-18
3.69672e-17
8.50151e-20
1.4475e-18
4.50615e-21
6.06754e-20
2.47789e-21
-2.87474e-22
1.15274e-06
-6.34146e-05
2.18458e-06
-6.23088e-05
3.12049e-06
-6.006e-05
3.97824e-06
-5.85468e-05
4.76663e-06
-5.79656e-05
5.48273e-06
-5.81957e-05
6.11587e-06
-5.9e-05
6.65627e-06
-6.01728e-05
7.10731e-06
-6.15834e-05
7.50095e-06
-6.31378e-05
7.90582e-06
-6.46352e-05
8.35976e-06
-6.53748e-05
3.76735e-08
-5.10521e-06
-8.89246e-11
-8.13822e-08
-1.98239e-11
3.64958e-10
-7.57361e-13
2.00185e-11
-2.11926e-14
3.69022e-13
-2.02072e-16
5.87871e-15
4.06353e-18
2.05064e-16
1.67085e-19
5.45478e-18
7.80727e-21
1.9101e-19
3.95583e-22
7.34621e-21
2.73774e-22
-3.58372e-23
1.03724e-06
-6.44438e-05
1.86072e-06
-6.31257e-05
2.56903e-06
-6.07629e-05
3.21061e-06
-5.91838e-05
3.80188e-06
-5.85525e-05
4.33979e-06
-5.87291e-05
4.81081e-06
-5.94663e-05
5.20118e-06
-6.05579e-05
5.51247e-06
-6.18886e-05
5.78416e-06
-6.34025e-05
6.12058e-06
-6.49633e-05
6.50161e-06
-6.57442e-05
2.60076e-08
-3.95446e-06
-5.24343e-11
-5.63659e-08
-9.57874e-12
2.80444e-10
-3.00822e-13
1.07559e-11
-3.79739e-15
7.99028e-14
-2.87356e-18
9.28822e-16
2.04348e-19
2.37924e-17
7.34771e-21
6.06134e-19
3.99795e-22
1.99754e-20
2.17695e-23
7.20797e-22
2.44819e-23
-2.5211e-24
8.70499e-07
-6.52646e-05
1.48707e-06
-6.37007e-05
2.0017e-06
-6.1243e-05
2.46951e-06
-5.96208e-05
2.90674e-06
-5.89603e-05
3.30845e-06
-5.91011e-05
3.66091e-06
-5.97872e-05
3.94826e-06
-6.08108e-05
4.16492e-06
-6.20669e-05
4.33805e-06
-6.35321e-05
4.55181e-06
-6.51267e-05
4.44497e-06
-6.5567e-05
3.92765e-09
-3.90699e-06
6.44539e-12
-5.30584e-08
-6.83145e-12
2.84226e-10
-2.50862e-14
3.91127e-12
-4.40552e-16
2.97588e-14
-1.16584e-18
1.3554e-16
-2.61825e-20
2.44268e-18
-6.86149e-22
6.23835e-20
-1.36915e-23
1.92582e-21
2.00903e-26
6.35868e-23
1.88712e-24
-5.40529e-26
2.66487e-07
-6.52369e-05
8.24805e-07
-6.4009e-05
1.30659e-06
-6.15097e-05
1.72022e-06
-5.98387e-05
2.08786e-06
-5.91395e-05
2.42296e-06
-5.92457e-05
2.72842e-06
-5.98928e-05
3.00248e-06
-6.08699e-05
3.24649e-06
-6.20754e-05
3.48634e-06
-6.35101e-05
3.73215e-06
-6.50778e-05
3.29748e-06
-6.47258e-05
-2.78547e-08
-6.61963e-06
4.86507e-12
-8.11098e-08
-1.41606e-12
2.5305e-10
-2.33879e-14
1.19857e-12
-1.41407e-16
5.97903e-15
-3.57533e-19
1.86392e-17
-8.79634e-21
2.78729e-19
-2.43648e-22
6.63637e-21
-6.78958e-24
1.89088e-22
-1.84694e-25
5.70991e-24
1.49828e-25
-6.28212e-27
1.22764e-07
-4.97723e-05
5.41649e-07
-5.20612e-05
8.60935e-07
-5.11044e-05
1.18046e-06
-5.01234e-05
1.48743e-06
-4.95293e-05
1.78666e-06
-4.93169e-05
2.09116e-06
-4.93734e-05
2.42279e-06
-4.95612e-05
2.81276e-06
-4.97577e-05
3.30915e-06
-4.99231e-05
3.93921e-06
-4.9785e-05
3.79624e-06
-4.24086e-05
-7.13881e-08
-7.00272e-06
-1.35645e-10
-1.50816e-07
-9.38286e-13
3.46017e-11
-5.13484e-15
9.62163e-14
-1.41521e-17
5.31171e-16
-1.04276e-19
1.70299e-18
-1.68485e-21
3.05856e-20
-4.32262e-23
6.70494e-22
-1.1522e-24
1.76676e-23
-3.06797e-26
4.90514e-25
1.14639e-26
-1.06823e-27
1.5661e-06
-4.29981e-28
8.52164e-07
-1.51477e-26
5.60357e-07
-1.27201e-24
5.14997e-07
-8.14939e-23
5.81916e-07
-4.05797e-21
6.82051e-07
-1.59433e-19
7.98961e-07
-5.07926e-18
9.38186e-07
-1.33348e-16
1.11656e-06
-2.84077e-15
1.31594e-06
-4.75689e-14
1.46701e-06
-6.55527e-13
1.16742e-06
-1.44857e-11
1.4676e-07
-1.7268e-09
-2.96406e-11
-3.32341e-09
-1.04224e-13
3.29601e-12
-4.50257e-16
1.77705e-14
-1.01354e-18
7.36381e-17
-1.28419e-20
2.03345e-19
-2.53807e-22
3.01998e-21
-5.95738e-24
6.13544e-23
-1.47038e-25
1.51031e-24
-3.58751e-27
3.88378e-26
8.13015e-28
-1.11924e-28
3.1983e-29
-8.86918e-28
1.15571e-28
-1.56855e-26
3.83688e-27
-1.27869e-24
1.86942e-25
-8.18946e-23
1.14887e-23
-4.08303e-21
5.87101e-22
-1.60667e-19
2.31349e-20
-5.12618e-18
7.37587e-19
-1.34781e-16
2.00146e-17
-2.87723e-15
4.53165e-16
-4.83359e-14
5.96785e-15
-6.66244e-13
-6.95768e-12
-7.58271e-12
-1.60004e-09
-1.34904e-10
-3.01513e-12
-3.86928e-12
-1.6054e-14
2.94225e-13
-7.2426e-17
1.75795e-15
-2.40062e-19
3.7176e-18
-1.77429e-21
2.76929e-20
-3.14675e-23
2.62171e-22
-6.82509e-25
4.95819e-24
-1.56032e-26
1.15948e-25
-3.45156e-28
2.7965e-27
5.29542e-29
-9.51028e-30
-8.91256e-28
-1.05606e-28
-1.24259e-26
-4.93726e-27
-1.0387e-24
-2.73877e-25
-7.19343e-23
-1.2454e-23
-3.81021e-21
-4.33085e-22
-1.56733e-19
-1.18643e-20
-5.1674e-18
-2.63493e-19
-1.37789e-16
-4.88048e-18
-2.95932e-15
-7.72267e-17
-5.02832e-14
-1.13073e-15
-6.97413e-13
-1.85314e-14
-8.04801e-12
-2.09082e-13
-1.8269e-10
-1.85279e-12
-2.85157e-13
2.03967e-12
-1.66264e-15
9.96783e-15
-3.59095e-18
1.01467e-16
-3.94727e-20
1.12233e-19
-1.97083e-22
3.10502e-21
-3.20803e-24
1.92317e-23
-6.57496e-26
3.45352e-25
-1.41002e-27
7.84651e-27
-2.84233e-29
1.80332e-28
3.12796e-30
-6.89628e-31
-1.05925e-28
3.18807e-31
-5.0025e-27
2.48114e-29
-2.78057e-25
1.12915e-27
-1.26534e-23
3.66052e-26
-4.41518e-22
8.59518e-25
-1.21552e-20
1.44697e-23
-2.71729e-19
1.56723e-22
-5.0725e-18
3.92017e-22
-8.10301e-17
-3.63641e-20
-1.19255e-15
-2.01532e-18
-1.9408e-14
-6.06922e-17
-2.25395e-13
-7.13313e-16
-2.06498e-12
-4.30748e-15
-9.76645e-15
4.62278e-15
-1.05264e-16
1.17473e-16
-2.56349e-19
1.53328e-18
-2.34165e-21
1.63051e-20
-1.67545e-23
1.54112e-22
-2.68494e-25
1.33648e-24
-5.34082e-27
2.26507e-26
-1.09232e-28
4.61262e-28
-2.02805e-30
1.02856e-29
1.67638e-31
-4.34242e-32
2.1822e-30
3.73929e-33
1.57738e-28
3.4458e-31
7.22036e-27
1.80369e-29
2.26814e-25
5.95538e-28
4.88811e-24
1.49024e-26
6.57685e-23
2.91944e-25
2.01089e-22
4.54643e-24
-1.55202e-20
5.64172e-23
-2.9979e-19
5.5175e-22
-4.43657e-18
4.12495e-21
-6.23628e-17
2.20405e-20
-6.22331e-16
7.19965e-20
-4.75549e-15
9.04232e-20
-1.05362e-16
-6.97122e-19
-1.08081e-18
2.17351e-18
-1.52396e-20
4.90663e-20
-1.40165e-22
7.08641e-22
-1.15961e-24
7.85821e-24
-1.88291e-26
7.41578e-26
-3.68412e-28
1.29787e-27
-7.26709e-30
2.62725e-29
-1.25892e-31
5.138e-31
8.7561e-33
-2.39086e-33
2.73792e-32
-1.92712e-37
2.65939e-30
-1.9641e-35
1.29307e-28
-1.04784e-33
4.34888e-27
-3.9239e-32
1.08936e-25
-1.15238e-30
2.10991e-24
-2.70698e-29
3.21626e-23
-5.26887e-28
3.86831e-22
-8.57862e-27
3.62075e-21
-1.174e-25
2.53885e-20
-1.34711e-24
1.21659e-19
-1.27647e-23
2.97827e-19
-9.59894e-23
-1.50521e-19
-5.05936e-22
-9.70518e-19
-1.21922e-21
-4.79278e-20
5.6503e-21
-7.13892e-22
7.05689e-22
-9.75881e-24
1.67824e-23
-6.52495e-26
3.06966e-25
-1.08761e-27
3.28638e-27
-2.15725e-29
6.15791e-29
-4.18379e-31
1.28567e-30
-6.83618e-33
2.43148e-32
4.03116e-34
-1.16086e-34
-9.6242e-38
-1.1411e-40
-1.9716e-35
-2.54941e-38
-1.05638e-33
-1.43761e-36
-4.3959e-32
-5.62367e-35
-1.17505e-30
-1.68003e-33
-2.80938e-29
-4.28951e-32
-5.84744e-28
-8.33057e-31
-1.03509e-26
-1.30371e-29
-1.54851e-25
-1.72919e-28
-1.95893e-24
-1.94886e-27
-2.10168e-23
-1.78554e-26
-4.13305e-22
-1.66742e-25
-5.22576e-21
-1.60306e-24
-6.57649e-21
-3.61829e-24
-6.80573e-22
4.90115e-24
-1.56071e-23
7.77188e-24
-2.83725e-25
3.7822e-25
-2.85926e-27
9.2272e-27
-5.15874e-29
1.1677e-28
-1.0607e-30
2.41638e-30
-2.05818e-32
5.32326e-32
-3.24642e-34
1.01901e-33
1.6198e-35
-4.92107e-36
-1.19417e-40
-1.23567e-45
-1.29398e-38
-1.46065e-43
-8.06746e-37
-8.86634e-42
-3.19143e-35
-4.02018e-40
-1.57464e-33
-1.87039e-38
-4.55599e-32
-5.88133e-37
-8.45575e-31
-1.18499e-35
-1.34057e-29
-1.99193e-34
-1.80306e-28
-2.86352e-33
-2.0716e-27
-3.53842e-32
-2.23028e-26
-3.36145e-31
-5.56565e-25
-3.48822e-30
-9.65404e-24
-3.03646e-29
-1.26447e-23
-2.22849e-28
-7.79667e-24
-5.09151e-28
-3.56e-25
3.28627e-26
-8.47199e-27
5.56349e-27
-1.00504e-28
2.08438e-28
-2.00847e-30
3.25041e-30
-4.3908e-32
7.76638e-32
-8.70401e-34
1.85146e-33
-1.3333e-35
3.65718e-35
5.66947e-37
-1.83064e-37
-1.25151e-45
-6.80859e-49
-1.50725e-43
-8.79158e-47
-9.03846e-42
-5.68994e-45
-4.11979e-40
-2.76539e-43
-1.34668e-38
-9.62152e-42
-3.53242e-37
-2.62039e-40
-7.69342e-36
-5.99443e-39
-1.43906e-34
-1.19908e-37
-2.30615e-33
-2.07403e-36
-3.17402e-32
-3.09116e-35
-4.45609e-31
-4.06877e-34
-5.97253e-30
-4.80531e-33
-8.24498e-29
-4.9501e-32
-4.98753e-27
-4.70443e-31
-3.74802e-26
-3.27295e-30
-5.41123e-27
3.901e-29
-1.88451e-28
4.55361e-29
-2.77427e-30
3.27402e-30
-6.35144e-32
6.68295e-32
-1.51502e-33
1.92043e-33
-3.13167e-35
5.36117e-35
-4.74126e-37
1.11621e-36
1.72495e-38
-5.9654e-39
-6.80923e-49
-1.69469e-53
-8.87374e-47
-2.39537e-51
-5.77889e-45
-1.68866e-49
-2.59523e-43
-8.18115e-48
-9.88454e-42
-3.35843e-46
-2.68969e-40
-9.86003e-45
-6.23313e-39
-2.47168e-43
-1.26025e-37
-5.42915e-42
-2.1957e-36
-1.03394e-40
-3.30264e-35
-1.70281e-39
-5.2476e-34
-2.53003e-38
-7.86121e-33
-3.41572e-37
-1.22759e-31
-4.07484e-36
-9.64142e-30
-4.22807e-35
-8.51429e-29
-3.74664e-34
-4.64531e-29
-9.6922e-34
-3.02661e-30
1.34964e-31
-5.89346e-32
3.48174e-32
-1.60569e-33
1.05301e-33
-4.30072e-35
3.80065e-35
-9.51088e-37
1.24568e-36
-1.45316e-38
2.90266e-38
4.54215e-40
-1.70334e-40
-1.66012e-53
-5.94808e-57
-2.41493e-51
-9.46286e-55
-1.71665e-49
-7.33242e-53
-8.38182e-48
-3.90024e-51
-3.1409e-46
-1.59236e-49
-9.84104e-45
-5.4385e-48
-2.55524e-43
-1.54301e-46
-5.62114e-42
-3.72297e-45
-1.07848e-40
-7.87717e-44
-1.79901e-39
-1.4531e-42
-3.14087e-38
-2.47078e-41
-5.32305e-37
-3.81744e-40
-8.35445e-36
-5.31245e-39
-1.35741e-34
-6.62981e-38
-1.47372e-32
-7.66656e-37
-1.63715e-31
-7.49302e-36
-3.34094e-32
1.20209e-34
-9.57869e-34
2.10815e-34
-3.26909e-35
1.23329e-35
-1.01522e-36
5.96338e-37
-2.45404e-38
2.35898e-38
-3.84538e-40
6.41669e-40
1.03626e-41
-4.2512e-42
-5.91268e-57
-8.06065e-62
-9.42274e-55
-1.41612e-59
-7.42354e-53
-1.22785e-57
-3.97504e-51
-7.22921e-56
-1.63357e-49
-3.26641e-54
-5.4739e-48
-1.20496e-52
-1.54708e-46
-3.75795e-51
-3.77183e-45
-1.01451e-49
-8.06877e-44
-2.41441e-48
-1.533e-42
-5.12737e-47
-2.91179e-41
-9.87942e-46
-5.56003e-40
-1.74791e-44
-9.89855e-39
-2.82496e-43
-1.82246e-37
-4.15252e-42
-2.55267e-35
-5.40917e-41
-3.29795e-34
-5.82266e-40
-2.10877e-34
-1.71618e-39
-1.16103e-35
5.36763e-37
-5.27611e-37
1.01866e-37
-1.96934e-38
7.28196e-39
-5.34338e-40
3.65337e-40
-8.77185e-42
1.20255e-41
2.04429e-43
-9.29683e-44
-8.07078e-62
-2.03811e-65
-1.42463e-59
-3.99846e-63
-1.24414e-57
-3.87532e-61
-7.36636e-56
-2.54538e-59
-3.34701e-54
-1.28333e-57
-1.24166e-52
-5.28878e-56
-3.89395e-51
-1.84613e-54
-1.05728e-49
-5.59514e-53
-2.53128e-48
-1.50111e-51
-5.41182e-47
-3.61111e-50
-1.09345e-45
-7.91498e-49
-2.36171e-44
-1.60545e-47
-4.81653e-43
-3.00811e-46
-9.3658e-42
-5.20098e-45
-1.8393e-40
-8.18993e-44
-3.72763e-38
-1.15826e-42
-6.13563e-37
-1.61432e-41
-1.00112e-37
5.88027e-40
-6.63691e-39
5.14107e-40
-3.12012e-40
6.73134e-41
-9.78474e-42
4.58342e-42
-1.72184e-43
1.82885e-43
3.48359e-45
-1.77996e-45
-2.03748e-65
-1.01061e-70
-4.01766e-63
-2.23548e-68
-3.91084e-61
-2.43753e-66
-2.58221e-59
-1.80226e-64
-1.30884e-57
-1.02342e-62
-5.4179e-56
-4.75176e-61
-1.89964e-54
-1.87226e-59
-5.7832e-53
-6.42201e-58
-1.55812e-51
-1.95599e-56
-3.76725e-50
-5.36831e-55
-8.32209e-49
-1.34797e-53
-1.99339e-47
-3.13554e-52
-4.62393e-46
-6.81616e-51
-1.02566e-44
-1.38137e-49
-2.29536e-43
-2.59181e-48
-5.95025e-41
-4.38023e-47
-1.12743e-39
-5.66365e-46
-5.4262e-40
-1.01081e-45
-6.34879e-41
9.45264e-43
-4.00294e-42
4.56114e-43
-1.50079e-43
4.60557e-44
-2.90301e-45
2.31481e-45
5.14413e-47
-2.9827e-47
-1.0117e-70
-1.86995e-74
-2.24838e-68
-4.70773e-72
-2.46363e-66
-5.83309e-70
-1.82977e-64
-4.89708e-68
-1.04338e-62
-3.15809e-66
-4.86519e-61
-1.66733e-64
-1.92544e-59
-7.48353e-63
-6.63458e-58
-2.93073e-61
-2.03028e-56
-1.02196e-59
-5.60392e-55
-3.22472e-58
-1.41547e-53
-9.33381e-57
-3.54628e-52
-2.5078e-55
-9.3966e-51
-6.33988e-54
-2.39836e-49
-1.50668e-52
-6.0713e-48
-3.35297e-51
-1.48569e-46
-6.84212e-50
-5.28825e-44
-1.19725e-48
-1.3206e-42
-2.17589e-47
-4.51571e-43
6.41999e-46
-4.19567e-44
1.80586e-45
-1.92736e-45
3.62825e-46
-4.2156e-47
2.44515e-47
6.41767e-49
-4.39075e-49
-1.8699e-74
-6.5854e-79
-4.72647e-72
-1.90537e-76
-5.88074e-70
-2.70892e-74
-4.95658e-68
-2.60878e-72
-3.20837e-66
-1.93115e-70
-1.7e-64
-1.17186e-68
-7.65728e-63
-6.05592e-67
-3.00938e-61
-2.73642e-65
-1.05288e-59
-1.10345e-63
-3.33429e-58
-4.03875e-62
-9.68348e-57
-1.35991e-60
-2.61722e-55
-4.26453e-59
-7.77995e-54
-1.25835e-57
-2.28733e-52
-3.52348e-56
-6.57115e-51
-9.31569e-55
-1.86347e-49
-2.29665e-53
-8.83992e-47
-5.04808e-52
-2.55112e-45
-9.63697e-51
-1.95452e-45
9.43534e-50
-3.4001e-46
3.58689e-48
-2.06217e-47
2.19194e-48
-5.25987e-49
2.14613e-49
6.87802e-51
-5.67476e-51
-6.58612e-79
-1.15186e-83
-1.9122e-76
-3.86805e-81
-2.72847e-74
-6.37577e-79
-2.63656e-72
-7.12269e-77
-1.95797e-70
-6.1256e-75
-1.19177e-68
-4.32673e-73
-6.17723e-67
-2.60803e-71
-2.79942e-65
-1.37751e-69
-1.13208e-63
-6.50747e-68
-4.155e-62
-2.79684e-66
-1.40282e-60
-1.10865e-64
-4.4114e-59
-4.10363e-63
-1.36005e-57
-1.43205e-61
-4.63554e-56
-4.7518e-60
-1.5472e-54
-1.5025e-58
-5.07615e-53
-4.48038e-57
-1.99012e-51
-1.22304e-55
-3.68192e-49
-2.7615e-54
-5.17127e-48
-4.68076e-53
-2.08564e-48
3.603e-51
-1.8575e-49
8.72678e-51
-5.6511e-51
1.55027e-51
6.36979e-53
-6.46269e-53
-1.15205e-83
-5.77931e-88
-3.88043e-81
-2.27788e-85
-6.41658e-79
-4.40289e-83
-7.18995e-77
-5.78123e-81
-6.20109e-75
-5.86303e-79
-4.39213e-73
-4.89938e-77
-2.65468e-71
-3.50394e-75
-1.40598e-69
-2.2014e-73
-6.66033e-68
-1.23986e-71
-2.87009e-66
-6.36562e-70
-1.14131e-64
-3.02199e-68
-4.23774e-63
-1.34235e-66
-1.4849e-61
-5.63373e-65
-5.36218e-60
-2.2509e-63
-2.10037e-58
-8.6088e-62
-8.15054e-57
-3.13584e-60
-3.1495e-55
-1.06443e-58
-2.83814e-52
-3.15957e-57
-1.16699e-50
-8.84614e-56
-8.77674e-51
2.70578e-54
-1.35255e-51
2.02527e-53
-5.22108e-53
9.1656e-54
5.11125e-55
-6.49345e-55
-5.77943e-88
-4.45852e-93
-2.28372e-85
-2.10156e-90
-4.42593e-83
-4.83424e-88
-5.82587e-81
-7.58986e-86
-5.92183e-79
-9.26262e-84
-4.95923e-77
-9.36699e-82
-3.55416e-75
-8.14269e-80
-2.23749e-73
-6.23886e-78
-1.26266e-71
-4.2963e-76
-6.49498e-70
-2.70282e-74
-3.08884e-68
-1.57519e-72
-1.37455e-66
-8.60645e-71
-5.77901e-65
-4.45152e-69
-2.31524e-63
-2.19688e-67
-9.99419e-62
-1.03878e-65
-4.62748e-60
-4.70847e-64
-2.1368e-58
-2.01589e-62
-6.0276e-56