/*--------------------------------*- C++ -*----------------------------------*\
| =========                 |                                                 |
| \\      /  F ield         | OpenFOAM: The Open Source CFD Toolbox           |
|  \\    /   O peration     | Version:  v2012                                 |
|   \\  /    A nd           | Website:  www.openfoam.com                      |
|    \\/     M anipulation  |                                                 |
\*---------------------------------------------------------------------------*/
FoamFile
{
    version     2.0;
    format      ascii;
    class       volScalarField;
    location    "0.05";
    object      p;
}
// * * * * * * * * * * * * * * * * * * * * * * * * * * * * * * * * * * * * * //

dimensions      [1 -1 -2 0 0 0 0];


internalField   nonuniform List<scalar> 
2268
(
1333.96
1332.36
1321.57
1298.89
1263.27
1214.53
1152.35
1075.67
982.549
867.585
725.71
551.608
317.427
100.195
19.3732
5.02558
3.75377
3.33684
3.03302
2.84737
2.72983
2.66443
2.64243
1274.86
1272.35
1260.69
1237.4
1201.4
1152.27
1089.56
1012.1
917.856
800.842
657.129
477.559
229.897
41.0866
3.76632
2.65351
2.97461
3.03772
2.92624
2.77705
2.66461
2.60035
2.57785
1217.04
1213.74
1200.89
1176.57
1139.82
1090.05
1026.61
948.169
852.628
733.542
589.082
405.322
153.324
16.636
3.40738
2.8376
2.85031
2.88199
2.81047
2.68483
2.58179
2.52075
2.49858
1160.71
1157.29
1143.79
1118.49
1080.86
1030.37
966.29
887.176
790.95
671.428
528.722
345.358
103.531
11.3718
3.8614
2.88078
2.78389
2.7717
2.69135
2.57855
2.48331
2.42512
2.40335
1105.95
1102.81
1089.44
1063.74
1025.48
974.473
910.061
830.832
734.847
616.69
478.003
299.901
76.2111
9.86509
3.95096
2.83748
2.71088
2.66448
2.56948
2.4629
2.372
2.31558
2.292
1052.89
1050.2
1037.6
1012.27
973.938
922.825
858.543
779.841
685.008
569.63
436.435
266.361
61.4691
8.97171
3.82926
2.74522
2.62803
2.54929
2.4428
2.3387
2.24969
2.19393
2.16282
1001.59
999.472
988.082
963.832
926.061
875.342
811.675
734.103
641.191
529.602
402.48
240.847
52.7875
8.00618
3.5648
2.62603
2.52441
2.42201
2.30887
2.20608
2.11758
2.06069
2.01182
952.039
950.411
940.231
917.329
880.512
830.55
767.849
691.822
601.321
494.072
372.184
217.289
45.843
6.62945
3.17148
2.48109
2.39512
2.28448
2.17047
2.06887
1.97868
1.91215
1.83222
1.277
1.27261
1.25756
1.23373
1.20477
1.17355
1.1421
1.11174
1.08337
1.05752
1.03445
1.01428
0.996984
0.98258
0.971013
0.962353
0.956598
0.953671
0.953014
1.21814
1.21347
1.19831
1.17467
1.14592
1.11483
1.08344
1.05312
1.02477
0.998924
0.975859
0.955697
0.9384
0.923995
0.912423
0.903751
0.897952
0.89494
0.894149
1.16065
1.15584
1.14004
1.11619
1.08742
1.05633
1.02492
0.994552
0.966161
0.940283
0.91719
0.897008
0.879692
0.865264
0.853662
0.844935
0.839034
0.835886
0.83496
1.10478
1.10041
1.08354
1.05879
1.02951
0.9981
0.966458
0.935923
0.907395
0.88141
0.858232
0.837979
0.820604
0.806113
0.794437
0.785607
0.779579
0.77635
0.775408
1.05058
1.04722
1.02892
1.00256
0.972184
0.940094
0.907998
0.877147
0.848381
0.82221
0.798881
0.778498
0.761014
0.746413
0.734626
0.725672
0.719555
0.716353
0.715481
0.996961
0.996572
0.976376
0.947456
0.915342
0.88217
0.849391
0.818091
0.789002
0.762579
0.739042
0.718479
0.700839
0.686094
0.674174
0.665113
0.658992
0.655927
0.655156
0.94163
0.950633
0.926846
0.893526
0.858845
0.824168
0.790493
0.758637
0.729166
0.70245
0.678669
0.657891
0.640064
0.625146
0.613086
0.603955
0.597932
0.595083
0.594419
0.89772
0.913964
0.881547
0.840857
0.802531
0.765968
0.731253
0.698792
0.66893
0.641921
0.617895
0.596896
0.578871
0.563769
0.551562
0.542381
0.536489
0.533841
0.533254
877.341
876.001
866.834
845.437
810.059
761.484
700.576
627.272
540.91
440.51
324.41
178.005
35.4796
4.64557
2.53432
2.21947
2.16191
2.0668
1.96171
1.86253
1.76543
1.65926
1.46623
783.192
781.814
773.158
753.029
719.562
673.495
615.924
547.195
467.184
375.589
269.846
138.036
23.2346
2.96204
1.93219
1.85268
1.84022
1.77357
1.6905
1.60391
1.51113
1.40813
1.29099
696.531
695.106
687.037
668.41
637.397
594.648
541.314
477.981
404.897
322.192
227.372
110.029
16.4334
2.23473
1.55109
1.53044
1.53256
1.48544
1.42179
1.35081
1.27285
1.18922
1.09952
617.073
615.628
608.192
591.156
562.801
523.697
474.971
417.333
351.26
277.152
192.651
88.4417
12.0022
1.71769
1.24238
1.24108
1.24503
1.20854
1.15804
1.09952
1.03397
0.962774
0.884552
544.422
542.981
536.167
520.68
494.965
459.539
415.473
363.523
304.292
238.321
163.36
71.0064
8.77505
1.31887
0.982015
0.977429
0.975074
0.943525
0.901517
0.852127
0.796167
0.735239
0.669354
478.118
476.714
470.519
456.542
433.403
401.591
362.103
315.695
263.017
204.673
138.5
56.9073
6.44533
0.99278
0.739132
0.726682
0.71683
0.687824
0.651675
0.609348
0.561354
0.509307
0.453816
417.671
416.336
410.768
398.271
377.641
349.336
314.274
273.177
226.702
175.449
117.342
45.5346
4.71859
0.689264
0.492976
0.478838
0.465133
0.438533
0.407158
0.370818
0.329764
0.285372
0.238354
362.575
361.334
356.398
345.347
327.14
302.2
271.358
235.287
194.616
149.913
99.1996
36.3168
3.38278
0.402517
0.247183
0.232802
0.217592
0.193728
0.166748
0.135855
0.101126
0.0636135
0.0239277
312.304
311.179
306.865
297.208
281.311
259.56
232.692
201.319
166.031
127.358
83.4461
28.7761
2.32395
0.126799
0.00240905
-0.0120476
-0.0273696
-0.0481299
-0.0708107
-0.0965037
-0.125247
-0.156311
-0.189285
266.328
265.329
261.611
253.273
239.552
220.793
197.638
170.632
140.32
107.21
69.6067
22.5624
1.46644
-0.142856
-0.2428
-0.25682
-0.27107
-0.28833
-0.30664
-0.327213
-0.350153
-0.375017
-0.401623
224.12
223.251
220.096
212.997
201.316
185.359
165.672
142.733
117.052
89.122
57.4274
17.4836
0.767969
-0.408874
-0.489692
-0.502293
-0.514307
-0.527573
-0.5413
-0.55673
-0.573984
-0.592852
-0.613379
185.144
184.423
181.82
175.907
166.147
152.818
136.383
117.259
95.9279
72.8747
46.7601
13.4292
0.20571
-0.671384
-0.738486
-0.748759
-0.757473
-0.766141
-0.774925
-0.785065
-0.796681
-0.80974
-0.824471
148.923
148.411
146.387
141.628
133.683
122.811
109.421
93.8862
76.6533
58.1986
37.3779
10.2517
-0.247846
-0.931553
-0.989815
-0.996859
-1.00131
-1.0047
-1.00796
-1.01242
-1.01825
-1.02556
-1.03468
115.343
115.01
113.529
109.844
103.587
94.9869
84.4222
72.2351
58.8318
44.6877
28.9297
7.78037
-0.617731
-1.18807
-1.24419
-1.24771
-1.24694
-1.24428
-1.24123
-1.23931
-1.23893
-1.24034
-1.24391
83.5832
83.0958
82.0789
79.4003
74.7176
68.2248
60.251
51.1193
41.2115
31.066
20.3287
5.63987
-0.883053
-1.42382
-1.50147
-1.50314
-1.49554
-1.48548
-1.47499
-1.46585
-1.4587
-1.45398
-1.45199
49.7542
49.5812
49.5116
48.1928
45.21
40.7582
35.165
28.7369
21.857
15.225
9.4458
2.60207
-1.15858
-1.64227
-1.76699
-1.76724
-1.74895
-1.72872
-1.70896
-1.69154
-1.67709
-1.66603
-1.65848
17.5363
19.5765
20.7984
20.8583
19.5992
17.1519
13.8157
9.82895
5.5212
1.69369
-0.271561
-0.957361
-1.92845
-1.9447
-2.05372
-2.04402
-2.00939
-1.97417
-1.94262
-1.91568
-1.89342
-1.87588
-1.86281
7.41017
11.803
12.0587
11.6688
10.8586
9.85886
8.60096
7.01878
5.22279
3.86565
4.1529
2.9621
-2.82089
-2.44227
-2.36811
-2.33302
-2.27579
-2.21978
-2.17435
-2.13698
-2.10668
-2.08273
-2.06433
12.2337
14.3373
12.6101
11.3404
10.4182
9.80394
9.3005
8.73669
8.03706
7.31262
6.73208
4.05229
-1.10394
-3.09602
-2.72771
-2.62814
-2.53675
-2.46079
-2.40065
-2.35317
-2.3153
-2.28542
-2.26215
-4.55246
-4.06935
-4.30362
-4.3798
-4.40659
-4.3989
-4.37558
-4.35138
-4.33633
-4.33212
-4.27885
-4.17798
-3.71598
-3.37546
-3.08329
-2.90979
-2.78196
-2.68771
-2.61665
-2.56131
-2.51739
-2.48265
-2.45526
-4.34325
-4.29314
-4.30437
-4.30495
-4.29285
-4.26978
-4.23859
-4.20153
-4.15896
-4.10817
-4.04229
-3.9587
-3.79008
-3.52644
-3.28932
-3.11759
-2.98952
-2.89292
-2.81821
-2.75901
-2.71143
-2.67335
-2.64288
-4.35702
-4.34095
-4.34075
-4.33593
-4.32238
-4.29876
-4.26686
-4.22773
-4.1803
-4.12091
-4.04383
-3.94147
-3.79381
-3.60009
-3.42356
-3.28267
-3.16966
-3.079
-3.00576
-2.94601
-2.89697
-2.85705
-2.82458
-4.37055
-4.36792
-4.36788
-4.36281
-4.34881
-4.32508
-4.29271
-4.25202
-4.20185
-4.13939
-4.06113
-3.95946
-3.83097
-3.68601
-3.5502
-3.4334
-3.33438
-3.25123
-3.18162
-3.12327
-3.07434
-3.03381
-3.0003
-4.40188
-4.40181
-4.40081
-4.39472
-4.38036
-4.35699
-4.32494
-4.28404
-4.23337
-4.17128
-4.09576
-4.00492
-3.89793
-3.78361
-3.67416
-3.57538
-3.48834
-3.41278
-3.34772
-3.29189
-3.24417
-3.20399
-3.17026
-4.44109
-4.44183
-4.44065
-4.43417
-4.41985
-4.39707
-4.36587
-4.32608
-4.27711
-4.2183
-4.14901
-4.06891
-3.97944
-3.88596
-3.79507
-3.71058
-3.63401
-3.56577
-3.50562
-3.45297
-3.40721
-3.36812
-3.33482
-4.48748
-4.48829
-4.4869
-4.48022
-4.46601
-4.44378
-4.4138
-4.37607
-4.33032
-4.2764
-4.21439
-4.14477
-4.0691
-3.99078
-3.91381
-3.84086
-3.77332
-3.71186
-3.65667
-3.60756
-3.56426
-3.52681
-3.49445
-4.54043
-4.54125
-4.53975
-4.53299
-4.51897
-4.49752
-4.46916
-4.43413
-4.39235
-4.34387
-4.28905
-4.22859
-4.16386
-4.09714
-4.031
-3.96744
-3.90766
-3.85241
-3.80205
-3.75665
-3.71612
-3.68065
-3.64961
-4.59964
-4.60041
-4.59879
-4.59201
-4.57841
-4.55815
-4.53186
-4.49987
-4.46222
-4.41903
-4.37071
-4.31799
-4.262
-4.20437
-4.14691
-4.09112
-4.03809
-3.98849
-3.94278
-3.9011
-3.8635
-3.83021
-3.80073
-4.66451
-4.66516
-4.66346
-4.65682
-4.64401
-4.62532
-4.60136
-4.57245
-4.53868
-4.50023
-4.45751
-4.41121
-4.3623
-4.31202
-4.2617
-4.21253
-4.16543
-4.12101
-4.07969
-4.04165
-4.00699
-3.97597
-3.94819
-4.73405
-4.73461
-4.73297
-4.72678
-4.71508
-4.69819
-4.67656
-4.6505
-4.62017
-4.58583
-4.54789
-4.507
-4.46399
-4.41985
-4.3756
-4.33219
-4.29037
-4.25067
-4.21345
-4.17888
-4.14708
-4.11835
-4.09233
-4.80727
-4.8078
-4.80637
-4.8009
-4.79053
-4.77544
-4.756
-4.73251
-4.70525
-4.67451
-4.64075
-4.60455
-4.56664
-4.52781
-4.48886
-4.45053
-4.41342
-4.378
-4.34454
-4.31322
-4.28415
-4.25765
-4.23344
-4.88354
-4.88408
-4.88297
-4.87836
-4.86934
-4.85595
-4.83853
-4.81741
-4.79294
-4.76548
-4.73548
-4.70347
-4.67007
-4.63592
-4.60163
-4.5678
-4.5349
-4.50332
-4.47329
-4.44497
-4.4185
-4.39419
-4.3718
-4.96262
-4.96319
-4.96246
-4.95871
-4.95094
-4.93909
-4.92351
-4.9046
-4.88273
-4.8583
-4.83174
-4.80351
-4.77414
-4.74412
-4.71396
-4.68411
-4.65495
-4.62681
-4.59991
-4.57439
-4.5504
-4.52823
-4.50768
-5.04429
-5.04498
-5.04468
-5.04171
-5.03501
-5.02451
-5.0106
-4.99372
-4.97427
-4.95263
-4.92919
-4.90437
-4.87857
-4.85222
-4.8257
-4.79939
-4.77359
-4.74858
-4.72456
-4.70168
-4.68007
-4.66003
-4.64138
-5.12816
-5.12906
-5.1292
-5.12689
-5.12106
-5.11172
-5.09931
-5.08429
-5.06705
-5.04796
-5.02736
-5.00559
-4.983
-4.95992
-4.93667
-4.91355
-4.89081
-4.86869
-4.84739
-4.82704
-4.80778
-4.78987
-4.77317
-5.21361
-5.21473
-5.21527
-5.21347
-5.20835
-5.20001
-5.18895
-5.17562
-5.16042
-5.14366
-5.12565
-5.10667
-5.08699
-5.0669
-5.04665
-5.02647
-5.0066
-4.98723
-4.96855
-4.95068
-4.93377
-4.91805
-4.90336
-5.29984
-5.30114
-5.30194
-5.30047
-5.2959
-5.28845
-5.27863
-5.26691
-5.25363
-5.23908
-5.2235
-5.20713
-5.19019
-5.17291
-5.15549
-5.13814
-5.12103
-5.10435
-5.08824
-5.07285
-5.05831
-5.04483
-5.03224
-5.38611
-5.38748
-5.38831
-5.38696
-5.38279
-5.37615
-5.36756
-5.35742
-5.34605
-5.33366
-5.32046
-5.30663
-5.29236
-5.27782
-5.26319
-5.24861
-5.23424
-5.22022
-5.20669
-5.19378
-5.18166
-5.17048
-5.16009
-5.47193
-5.47324
-5.47381
-5.47232
-5.46843
-5.46258
-5.45525
-5.44676
-5.43734
-5.42715
-5.41635
-5.40509
-5.39349
-5.3817
-5.36984
-5.35805
-5.34643
-5.33509
-5.32415
-5.31371
-5.30402
-5.29524
-5.28714
-5.5579
-5.55897
-5.55882
-5.55682
-5.55308
-5.54804
-5.54205
-5.53529
-5.52789
-5.51995
-5.51158
-5.50288
-5.49396
-5.48491
-5.47584
-5.46682
-5.45795
-5.44929
-5.44087
-5.43277
-5.42549
-5.41929
-5.41363
-5.6427
-5.64621
-5.64353
-5.6402
-5.63658
-5.63252
-5.62803
-5.62312
-5.61784
-5.61221
-5.60632
-5.60022
-5.59399
-5.5877
-5.58141
-5.57518
-5.56906
-5.56306
-5.55705
-5.55088
-5.54585
-5.54273
-5.53979
-5.71111
-5.72594
-5.71557
-5.711
-5.70835
-5.70606
-5.7038
-5.70146
-5.69899
-5.69639
-5.69371
-5.69096
-5.68818
-5.6854
-5.68266
-5.67998
-5.67735
-5.67473
-5.67182
-5.66793
-5.66631
-5.66639
-5.666
1.14159
1.0782
1.05665
1.01512
1.1541
1.07092
1.00171
0.939698
0.998715
0.925467
0.858047
0.799178
0.806338
0.748538
0.690207
0.63697
0.607241
0.559249
0.508329
0.461184
0.402366
0.361886
0.318146
0.27738
0.195093
0.160905
0.123734
0.0889733
-0.0125537
-0.0414508
-0.0728803
-0.102254
-0.219784
-0.244062
-0.270482
-0.295126
-0.426564
-0.446596
-0.468502
-0.488943
-0.633102
-0.649139
-0.666819
-0.683363
-0.839296
-0.851579
-0.865255
-0.878107
-1.04484
-1.05357
-1.06346
-1.07282
-1.24955
-1.25487
-1.26111
-1.26712
-1.45322
-1.45519
-1.45788
-1.46063
-1.65537
-1.65407
-1.65331
-1.65291
-1.85546
-1.85099
-1.84688
-1.84347
-2.05292
-2.04542
-2.03814
-2.03187
-2.24701
-2.23671
-2.22652
-2.21763
-2.43688
-2.42415
-2.4114
-2.40024
-2.6219
-2.60717
-2.59233
-2.57928
-2.8017
-2.78546
-2.76901
-2.75449
-2.97621
-2.95893
-2.94134
-2.92576
-3.14555
-3.12768
-3.10939
-3.09312
-3.31002
-3.29193
-3.2733
-3.25666
-3.46997
-3.45195
-3.43329
-3.41654
-3.62575
-3.60804
-3.5896
-3.57295
-3.77771
-3.76049
-3.74246
-3.72611
-3.92618
-3.90958
-3.89212
-3.87622
-4.07144
-4.05556
-4.03882
-4.02353
-4.21375
-4.19871
-4.18281
-4.16826
-4.35339
-4.33927
-4.32434
-4.31067
-4.49064
-4.47753
-4.46368
-4.45102
-4.62579
-4.61378
-4.60113
-4.58958
-4.75913
-4.74832
-4.73697
-4.72662
-4.89097
-4.88144
-4.87147
-4.86241
-5.0216
-5.01342
-5.0049
-4.99718
-5.15128
-5.14452
-5.1375
-5.13115
-5.28025
-5.27495
-5.26947
-5.26452
-5.40874
-5.40494
-5.401
-5.39746
-5.53708
-5.53482
-5.53242
-5.53026
-5.66537
-5.66462
-5.66372
-5.66292
0.910547
0.865217
0.811332
0.758256
0.713584
0.673944
0.637625
0.604279
0.57389
0.546521
0.522211
0.500957
0.482694
0.46736
0.454962
0.445713
0.439945
0.437446
0.436932
0.841222
0.759564
0.694015
0.635821
0.586782
0.544372
0.506501
0.472307
0.441462
0.413844
0.389393
0.368044
0.349702
0.334292
0.321838
0.312597
0.306914
0.304488
0.304017
0.714894
0.631718
0.563221
0.503672
0.453185
0.409621
0.371077
0.336571
0.305636
0.27805
0.253687
0.232445
0.214213
0.198911
0.186581
0.177492
0.171969
0.169644
0.16921
0.562867
0.486329
0.420299
0.362368
0.312639
0.269421
0.231168
0.196995
0.166426
0.139214
0.115212
0.0943047
0.0763772
0.0613541
0.0492886
0.0404525
0.0351365
0.032929
0.032531
0.396667
0.328484
0.267584
0.213203
0.165758
0.124064
0.0869683
0.0537577
0.0240259
-0.00244962
-0.0258039
-0.0461466
-0.0635827
-0.0781785
-0.0898729
-0.0984
-0.103497
-0.105595
-0.105963
0.221861
0.162117
0.107364
0.0575417
0.0133375
-0.02599
-0.0612477
-0.0929573
-0.121426
-0.146825
-0.169258
-0.188813
-0.20558
-0.219611
-0.230839
-0.239005
-0.243868
-0.245857
-0.246198
0.0415904
-0.0101777
-0.0585858
-0.103408
-0.143814
-0.180211
-0.213126
-0.242906
-0.269753
-0.293775
-0.315038
-0.333603
-0.349537
-0.362876
-0.373546
-0.381297
-0.385901
-0.387775
-0.388089
-0.142338
-0.186724
-0.228927
-0.268619
-0.304928
-0.338037
-0.368254
-0.395778
-0.420716
-0.443114
-0.462995
-0.480391
-0.495346
-0.507878
-0.517907
-0.525188
-0.529507
-0.531257
-0.531543
-0.328737
-0.366339
-0.402612
-0.437209
-0.469297
-0.498909
-0.526194
-0.55123
-0.574041
-0.594617
-0.612944
-0.629023
-0.642876
-0.654503
-0.663816
-0.670579
-0.674585
-0.676202
-0.67646
-0.516782
-0.548142
-0.578796
-0.608424
-0.636278
-0.662295
-0.686506
-0.708898
-0.729427
-0.748036
-0.764677
-0.779325
-0.791977
-0.80262
-0.811155
-0.817357
-0.821028
-0.822503
-0.822731
-0.705896
-0.731456
-0.756787
-0.781616
-0.805293
-0.827693
-0.848763
-0.86842
-0.886568
-0.903112
-0.917974
-0.931107
-0.942488
-0.952085
-0.959796
-0.965404
-0.96872
-0.970045
-0.970242
-0.895639
-0.915737
-0.936009
-0.956221
-0.975819
-0.994635
-1.01255
-1.02944
-1.04515
-1.05958
-1.07261
-1.08417
-1.09424
-1.10275
-1.1096
-1.11459
-1.11754
-1.11871
-1.11888
-1.0856
-1.10051
-1.11596
-1.13174
-1.14738
-1.16269
-1.17749
-1.19161
-1.20489
-1.21717
-1.22835
-1.23833
-1.24705
-1.25445
-1.26043
-1.26479
-1.26736
-1.26837
-1.26851
-1.27537
-1.28532
-1.29617
-1.30771
-1.31955
-1.33145
-1.3432
-1.3546
-1.36547
-1.37564
-1.38497
-1.39337
-1.40075
-1.40704
-1.41214
-1.41587
-1.41806
-1.41891
-1.41902
-1.4645
-1.46973
-1.4762
-1.48372
-1.49192
-1.50054
-1.50935
-1.51812
-1.52664
-1.53474
-1.54226
-1.5491
-1.55516
-1.56036
-1.56459
-1.56769
-1.56951
-1.5702
-1.57028
-1.65258
-1.65331
-1.65566
-1.65936
-1.66412
-1.66962
-1.67562
-1.68187
-1.68813
-1.69424
-1.70002
-1.70535
-1.71012
-1.71426
-1.71765
-1.72013
-1.72158
-1.72212
-1.72216
-1.83914
-1.83566
-1.83413
-1.83428
-1.8358
-1.83838
-1.84173
-1.84558
-1.84971
-1.85392
-1.85804
-1.86193
-1.86548
-1.86859
-1.87117
-1.87306
-1.87416
-1.87455
-1.87456
-2.02379
-2.01639
-2.01128
-2.00814
-2.00668
-2.00654
-2.00742
-2.00904
-2.01117
-2.0136
-2.01615
-2.01868
-2.02107
-2.02322
-2.02502
-2.02636
-2.02712
-2.02737
-2.02736
-2.20613
-2.19517
-2.1868
-2.18067
-2.17647
-2.17384
-2.17245
-2.17202
-2.1723
-2.17309
-2.17419
-2.17546
-2.17678
-2.17802
-2.1791
-2.17991
-2.18036
-2.18048
-2.18044
-2.38576
-2.37166
-2.36042
-2.35161
-2.34496
-2.34008
-2.33664
-2.33434
-2.33294
-2.33223
-2.33202
-2.33214
-2.33246
-2.33288
-2.33329
-2.33361
-2.33377
-2.33377
-2.33371
-2.56232
-2.54559
-2.53188
-2.52075
-2.51195
-2.50508
-2.49982
-2.49586
-2.49296
-2.4909
-2.4895
-2.48858
-2.48801
-2.48768
-2.48749
-2.48737
-2.48726
-2.48715
-2.48707
-2.73558
-2.71672
-2.70098
-2.68791
-2.67727
-2.6687
-2.66185
-2.65644
-2.65223
-2.64899
-2.64653
-2.6447
-2.64333
-2.64233
-2.6416
-2.64109
-2.64074
-2.64054
-2.64044
-2.90541
-2.88495
-2.8676
-2.85295
-2.84081
-2.83081
-2.82262
-2.81598
-2.81064
-2.80639
-2.80304
-2.8004
-2.79834
-2.79676
-2.79555
-2.79469
-2.79415
-2.79386
-2.79375
-3.0718
-3.05019
-3.03166
-3.01579
-3.00246
-2.99132
-2.98205
-2.9744
-2.96814
-2.96304
-2.95893
-2.95562
-2.95298
-2.95089
-2.94928
-2.94812
-2.9474
-2.94704
-2.94692
-3.23477
-3.21246
-3.19313
-3.1764
-3.16219
-3.15018
-3.14008
-3.13165
-3.12465
-3.11888
-3.11415
-3.11029
-3.10717
-3.10467
-3.10272
-3.10132
-3.10045
-3.10003
-3.0999
-3.39444
-3.37182
-3.35204
-3.33478
-3.31999
-3.30739
-3.2967
-3.28769
-3.28014
-3.27386
-3.26866
-3.26438
-3.26087
-3.25805
-3.25583
-3.25423
-3.25324
-3.25278
-3.25265
-3.55095
-3.52835
-3.50846
-3.49098
-3.47589
-3.46295
-3.45189
-3.44252
-3.43461
-3.42797
-3.42244
-3.41785
-3.41406
-3.41099
-3.40858
-3.40682
-3.40574
-3.40525
-3.40512
-3.70445
-3.68219
-3.66248
-3.64506
-3.62994
-3.6169
-3.6057
-3.59615
-3.58805
-3.58121
-3.57547
-3.57068
-3.56672
-3.56348
-3.56092
-3.55906
-3.55793
-3.55741
-3.55728
-3.85516
-3.8335
-3.81423
-3.79714
-3.78222
-3.7693
-3.75817
-3.74862
-3.74048
-3.73359
-3.72777
-3.72288
-3.71882
-3.71549
-3.71285
-3.71094
-3.70976
-3.70924
-3.70911
-4.00326
-3.98245
-3.96388
-3.94733
-3.93285
-3.92025
-3.90935
-3.89998
-3.89195
-3.88512
-3.87933
-3.87445
-3.87038
-3.86702
-3.86436
-3.86243
-3.86125
-3.86073
-3.8606
-4.14899
-4.12925
-4.11158
-4.09579
-4.08193
-4.06984
-4.05935
-4.05029
-4.0425
-4.03585
-4.0302
-4.02541
-4.0214
-4.01809
-4.01546
-4.01354
-4.01237
-4.01186
-4.01174
-4.29259
-4.27411
-4.25753
-4.24268
-4.22961
-4.21818
-4.20823
-4.19962
-4.19219
-4.18582
-4.18039
-4.17578
-4.1719
-4.16869
-4.16613
-4.16427
-4.16314
-4.16265
-4.16254
-4.4343
-4.41724
-4.40191
-4.38816
-4.37603
-4.36539
-4.35611
-4.34805
-4.34108
-4.33509
-4.32996
-4.32559
-4.3219
-4.31885
-4.31641
-4.31464
-4.31356
-4.31309
-4.31299
-4.57436
-4.55886
-4.54492
-4.53239
-4.52132
-4.51159
-4.50308
-4.49567
-4.48924
-4.4837
-4.47895
-4.47488
-4.47145
-4.4686
-4.46632
-4.46465
-4.46364
-4.4632
-4.46311
-4.71303
-4.6992
-4.68676
-4.67555
-4.66563
-4.6569
-4.64924
-4.64256
-4.63675
-4.63173
-4.62741
-4.6237
-4.62057
-4.61796
-4.61587
-4.61434
-4.61341
-4.61301
-4.61293
-4.85053
-4.83847
-4.82759
-4.8178
-4.8091
-4.80144
-4.79471
-4.78882
-4.78369
-4.77924
-4.7754
-4.7721
-4.7693
-4.76697
-4.7651
-4.76372
-4.76289
-4.76253
-4.76246
-4.98708
-4.97685
-4.96761
-4.95928
-4.95187
-4.94533
-4.93957
-4.93453
-4.93012
-4.92629
-4.92298
-4.92013
-4.9177
-4.91567
-4.91404
-4.91284
-4.91211
-4.91179
-4.91173
-5.12288
-5.11452
-5.10696
-5.10014
-5.09406
-5.08869
-5.08394
-5.07978
-5.07613
-5.07296
-5.07021
-5.06783
-5.06581
-5.06411
-5.06273
-5.06172
-5.06109
-5.06082
-5.06076
-5.2581
-5.25164
-5.2458
-5.24051
-5.2358
-5.23161
-5.22792
-5.22466
-5.22181
-5.21932
-5.21715
-5.21528
-5.21368
-5.21233
-5.21123
-5.2104
-5.20988
-5.20964
-5.20959
-5.39294
-5.38843
-5.38432
-5.38059
-5.37725
-5.37428
-5.37165
-5.36933
-5.36729
-5.36551
-5.36395
-5.3626
-5.36144
-5.36044
-5.35962
-5.35896
-5.35852
-5.35829
-5.35824
-5.52756
-5.52502
-5.52267
-5.52051
-5.51856
-5.51681
-5.51525
-5.51388
-5.51266
-5.51159
-5.51066
-5.50984
-5.50913
-5.5085
-5.50795
-5.50746
-5.50706
-5.5068
-5.50672
-5.66201
-5.66127
-5.66057
-5.65988
-5.65925
-5.65868
-5.65817
-5.6577
-5.65729
-5.65693
-5.65661
-5.65632
-5.65607
-5.65584
-5.65563
-5.65542
-5.65524
-5.6551
-5.65503
)
;

boundaryField
{
    leftWall
    {
        type            calculated;
        value           nonuniform List<scalar> 
50
(
1333.96
1274.86
1217.04
1160.71
1105.95
1052.89
1001.59
952.039
877.341
783.192
696.531
617.073
544.422
478.118
417.671
362.575
312.304
266.328
224.12
185.144
148.923
115.343
83.5832
49.7542
17.5363
7.41017
12.2337
-4.55246
-4.34325
-4.35702
-4.37055
-4.40188
-4.44109
-4.48748
-4.54043
-4.59964
-4.66451
-4.73405
-4.80727
-4.88354
-4.96262
-5.04429
-5.12816
-5.21361
-5.29984
-5.38611
-5.47193
-5.5579
-5.6427
-5.71111
)
;
    }
    rightWall
    {
        type            calculated;
        value           nonuniform List<scalar> 
50
(
0.953014
0.894149
0.83496
0.775408
0.715481
0.655156
0.594419
0.533254
0.436932
0.304017
0.16921
0.032531
-0.105963
-0.246198
-0.388089
-0.531543
-0.67646
-0.822731
-0.970242
-1.11888
-1.26851
-1.41902
-1.57028
-1.72216
-1.87456
-2.02736
-2.18044
-2.33371
-2.48707
-2.64044
-2.79375
-2.94692
-3.0999
-3.25265
-3.40512
-3.55728
-3.70911
-3.8606
-4.01174
-4.16254
-4.31299
-4.46311
-4.61293
-4.76246
-4.91173
-5.06076
-5.20959
-5.35824
-5.50672
-5.65503
)
;
    }
    lowerWall
    {
        type            calculated;
        value           nonuniform List<scalar> 
62
(
1363.39
1361.79
1351
1328.32
1292.7
1243.96
1181.78
1105.1
1011.98
897.014
755.14
581.038
346.81
125.644
29.2439
5.73898
3.98245
3.41257
3.07075
2.8779
2.75935
2.69386
2.67186
2.64243
2.57785
2.49858
2.40335
2.292
2.16282
2.01182
1.83222
1.20418
1.1408
1.11925
1.07772
1.277
1.21814
1.16065
1.10478
1.05058
0.996961
0.94163
0.89772
1.30643
1.30204
1.28698
1.26316
1.2342
1.20298
1.17153
1.14116
1.1128
1.08695
1.06388
1.04371
1.02641
1.01201
1.00044
0.991782
0.986028
0.9831
0.982443
)
;
    }
    atmosphere
    {
        type            calculated;
        value           nonuniform List<scalar> 
46
(
-5.73492
-5.73637
-5.73556
-5.73499
-5.73449
-5.734
-5.7335
-5.73299
-5.73248
-5.73196
-5.73146
-5.73099
-5.73055
-5.73017
-5.72983
-5.72956
-5.72934
-5.72919
-5.72909
-5.72905
-5.72904
-5.72904
-5.72904
-5.72904
-5.72904
-5.72904
-5.72904
-5.72904
-5.72904
-5.72904
-5.72904
-5.72904
-5.72904
-5.72904
-5.72904
-5.72904
-5.72904
-5.72904
-5.72904
-5.72904
-5.72904
-5.72904
-5.72904
-5.72904
-5.72904
-5.72904
)
;
    }
    defaultFaces
    {
        type            empty;
    }
}


// ************************************************************************* //
