/*--------------------------------*- C++ -*----------------------------------*\
| =========                 |                                                 |
| \\      /  F ield         | OpenFOAM: The Open Source CFD Toolbox           |
|  \\    /   O peration     | Version:  v2012                                 |
|   \\  /    A nd           | Website:  www.openfoam.com                      |
|    \\/     M anipulation  |                                                 |
\*---------------------------------------------------------------------------*/
FoamFile
{
    version     2.0;
    format      ascii;
    class       volScalarField;
    location    "0.05";
    object      p_rgh;
}
// * * * * * * * * * * * * * * * * * * * * * * * * * * * * * * * * * * * * * //

dimensions      [1 -1 -2 0 0 0 0];


internalField   nonuniform List<scalar> 
2268
(
1363.39
1361.79
1351
1328.32
1292.7
1243.96
1181.78
1105.1
1011.98
897.014
755.14
581.038
346.81
125.644
29.2439
5.73898
3.98245
3.41257
3.07075
2.8779
2.75935
2.69386
2.67186
1363.15
1360.64
1348.98
1325.69
1289.68
1240.56
1177.85
1100.39
1006.14
889.13
745.417
565.847
314.588
87.593
10.5214
3.71911
3.37071
3.21724
3.02738
2.86714
2.75307
2.68865
2.66615
1364.18
1360.88
1348.04
1323.72
1286.97
1237.19
1173.75
1095.32
999.775
880.689
736.228
552.469
283.78
52.3925
5.32838
3.54281
3.18067
3.07633
2.96624
2.83312
2.72906
2.6679
2.64573
1366.71
1363.29
1349.79
1324.5
1286.87
1236.38
1172.3
1093.18
996.955
877.433
734.727
551.364
270.234
39.5015
5.36052
3.41609
3.07473
2.99713
2.9011
2.78514
2.68938
2.63113
2.60936
1370.81
1367.67
1354.3
1328.6
1290.35
1239.34
1174.93
1095.7
999.712
881.554
742.867
564.765
273.106
32.9341
5.25039
3.324
3.02342
2.93915
2.83615
2.72805
2.6369
2.58044
2.55687
1376.61
1373.93
1361.32
1335.99
1297.66
1246.55
1182.27
1103.56
1008.73
893.353
760.158
590.084
287.455
29.0259
5.04052
3.23694
2.98254
2.87853
2.76745
2.66257
2.57343
2.51766
2.48654
1384.17
1382.05
1370.66
1346.41
1308.64
1257.92
1194.26
1116.68
1023.77
912.184
785.062
623.428
311.495
27.4999
4.75072
3.14858
2.92998
2.80824
2.69201
2.58874
2.50017
2.44327
2.3944
1393.48
1391.85
1381.67
1358.77
1321.95
1271.99
1209.29
1133.26
1042.76
935.512
813.624
658.729
340.787
27.0206
4.36253
3.04606
2.85562
2.72872
2.61231
2.51037
2.42013
2.3536
2.27366
1.30643
1.30204
1.28698
1.26316
1.2342
1.20298
1.17153
1.14116
1.1128
1.08695
1.06388
1.04371
1.02641
1.01201
1.00044
0.991782
0.986028
0.9831
0.982443
1.30643
1.30176
1.28659
1.26296
1.23421
1.20312
1.17173
1.14141
1.11306
1.08721
1.06415
1.04399
1.02669
1.01228
1.00071
0.992039
0.98624
0.983228
0.982437
1.30779
1.30298
1.28719
1.26334
1.23457
1.20348
1.17206
1.1417
1.11331
1.08743
1.06434
1.04415
1.02684
1.01241
1.00081
0.992082
0.986181
0.983033
0.982107
1.31078
1.30642
1.28954
1.2648
1.23551
1.20411
1.17246
1.14193
1.1134
1.08742
1.06424
1.04398
1.02661
1.01212
1.00044
0.991613
0.985584
0.982356
0.981414
1.31544
1.31209
1.29379
1.26743
1.23705
1.20496
1.17286
1.14201
1.11325
1.08707
1.06375
1.04336
1.02588
1.01128
0.99949
0.990537
0.984419
0.981218
0.980345
1.32068
1.3203
1.3001
1.27118
1.23906
1.20589
1.17311
1.14181
1.11272
1.0863
1.06276
1.0422
1.02456
1.00982
0.997897
0.988836
0.982715
0.97965
0.978879
1.32421
1.33322
1.30943
1.27611
1.24143
1.20675
1.17307
1.14122
1.11175
1.08503
1.06125
1.04047
1.02265
1.00773
0.995668
0.986537
0.980513
0.977665
0.977001
1.33916
1.3554
1.32299
1.2823
1.24397
1.20741
1.17269
1.14023
1.11037
1.08336
1.05934
1.03834
1.02031
1.00521
0.993003
0.983822
0.977929
0.975281
0.974694
1410.81
1409.47
1400.3
1378.9
1343.53
1294.95
1234.04
1160.74
1074.38
973.977
857.878
711.472
378.248
24.1382
3.73731
2.8552
2.71041
2.60237
2.49546
2.39603
2.2989
2.19273
1.9997
1441.85
1440.48
1431.82
1411.69
1378.22
1332.16
1274.59
1205.86
1125.85
1034.25
928.507
796.698
397.996
15.4245
3.09219
2.5829
2.50906
2.43364
2.34935
2.2626
2.16979
2.0668
1.94965
1480.39
1478.96
1470.89
1452.27
1421.25
1378.5
1325.17
1261.84
1188.75
1106.05
1011.23
893.885
405.311
9.5272
2.69232
2.36023
2.3225
2.2701
2.20575
2.13468
2.0567
1.97307
1.88338
1526.12
1524.68
1517.24
1500.21
1471.85
1432.75
1384.02
1326.38
1260.31
1186.2
1101.7
997.492
403.36
6.12103
2.40106
2.17871
2.15751
2.11801
2.06714
2.00858
1.94302
1.87182
1.7936
1578.67
1577.23
1570.41
1554.93
1529.21
1493.78
1449.72
1397.77
1338.54
1272.57
1197.61
1105.25
394.07
4.05582
2.18383
2.02877
2.01116
1.97798
1.93579
1.88638
1.83041
1.76948
1.7036
1637.56
1636.15
1629.96
1615.98
1592.84
1561.03
1521.54
1475.13
1422.46
1364.11
1297.94
1216.35
379.4
3.4063
2.0075
1.89597
1.87722
1.84736
1.81112
1.76879
1.72079
1.66875
1.61326
1702.31
1700.97
1695.4
1682.9
1662.27
1633.97
1598.91
1557.81
1511.34
1460.08
1401.98
1330.17
361.288
2.87343
1.84659
1.76897
1.75024
1.72321
1.6918
1.65545
1.6144
1.57001
1.52299
1772.4
1771.16
1766.23
1755.18
1736.97
1712.03
1681.19
1645.12
1604.44
1559.74
1509.03
1446.15
340.813
2.43285
1.69969
1.64559
1.62764
1.60357
1.57658
1.54568
1.51096
1.47344
1.43376
1847.33
1846.2
1841.89
1832.23
1816.33
1794.58
1767.72
1736.34
1701.05
1662.38
1618.47
1563.8
318.579
2.06068
1.56316
1.52451
1.50776
1.4869
1.46421
1.43852
1.40978
1.37871
1.34574
1926.55
1925.55
1921.83
1913.49
1899.77
1881.01
1857.86
1830.85
1800.54
1767.43
1729.82
1682.78
294.967
1.77526
1.43245
1.40416
1.38919
1.37189
1.35358
1.333
1.31006
1.2852
1.2586
2009.53
2008.66
2005.51
1998.41
1986.73
1970.77
1951.08
1928.15
1902.46
1874.53
1842.84
1802.9
270.338
1.54008
1.30416
1.28348
1.27112
1.25784
1.24411
1.22868
1.21143
1.19256
1.17203
2095.75
2095.03
2092.43
2086.51
2076.75
2063.43
2046.99
2027.87
2006.53
1983.48
1957.37
1924.04
245.046
1.33946
1.17665
1.162
1.15314
1.14447
1.13568
1.12554
1.11393
1.10087
1.08614
2184.72
2184.21
2182.19
2177.43
2169.48
2158.61
2145.22
2129.69
2112.45
2094
2073.18
2046.05
219.407
1.16311
1.04823
1.039
1.03449
1.0311
1.02784
1.02338
1.01755
1.01025
1.00112
2276.33
2276
2274.52
2270.83
2264.58
2255.98
2245.41
2233.22
2219.82
2205.67
2189.91
2168.76
192.975
1.00637
0.917801
0.913298
0.914059
0.916716
0.919769
0.921684
0.922067
0.920656
0.917085
2369.69
2369.22
2368.22
2365.54
2360.86
2354.37
2346.39
2337.26
2327.34
2317.19
2306.44
2291.71
164.941
0.882832
0.785221
0.783042
0.790646
0.80071
0.811197
0.820343
0.827488
0.83221
0.834199
2460.57
2460.49
2460.5
2459.23
2456.26
2451.8
2446.18
2439.72
2432.8
2426.11
2420.25
2413.17
145.575
0.784671
0.644398
0.64414
0.66244
0.68266
0.702429
0.719848
0.734294
0.745358
0.752908
2550.19
2552.82
2554.5
2554.8
2553.62
2551.13
2547.66
2543.47
2538.9
2534.73
2532.31
2530.04
163.027
0.603547
0.48281
0.492567
0.527188
0.562413
0.593959
0.620895
0.643157
0.660699
0.673771
2504.74
2550.26
2568.38
2574.81
2574.95
2570.58
2562.33
2550.89
2536.15
2517.83
2494.1
2373.86
277.801
0.205633
0.294107
0.328752
0.385984
0.44199
0.487423
0.524797
0.555093
0.579042
0.597441
810.503
923.69
972.937
991.337
991.268
977.289
954.748
926.107
890.541
847.337
786.802
597.193
236.438
-0.339143
0.0592412
0.158826
0.250215
0.326182
0.386323
0.433803
0.47167
0.501544
0.524823
-1.6403
-1.15718
-1.39146
-1.46764
-1.49443
-1.48674
-1.46341
-1.43922
-1.42416
-1.41995
-1.36669
-1.26581
-0.803776
-0.334125
-0.171129
0.00237578
0.130208
0.224451
0.295517
0.350855
0.394774
0.429513
0.456902
-1.30589
-1.25579
-1.26701
-1.26759
-1.2555
-1.23242
-1.20123
-1.16418
-1.12161
-1.07081
-1.00493
-0.921344
-0.751806
-0.481669
-0.251965
-0.0802353
0.0478392
0.14444
0.219145
0.278345
0.325925
0.364008
0.394477
-1.19447
-1.1784
-1.1782
-1.17338
-1.15983
-1.13621
-1.10431
-1.06518
-1.01775
-0.958355
-0.881275
-0.778917
-0.63126
-0.437535
-0.26101
-0.120114
-0.00710409
0.083548
0.156789
0.216539
0.265578
0.305501
0.337975
-1.0828
-1.08018
-1.08013
-1.07506
-1.06107
-1.03733
-1.00496
-0.964269
-0.914102
-0.851645
-0.773387
-0.671713
-0.543226
-0.398258
-0.262453
-0.145655
-0.0466366
0.0365181
0.10613
0.164481
0.213407
0.253934
0.287448
-0.988936
-0.988869
-0.987872
-0.981777
-0.967417
-0.944051
-0.911998
-0.871097
-0.820431
-0.758343
-0.682814
-0.591976
-0.484991
-0.370664
-0.261217
-0.162442
-0.075397
0.00015832
0.0652203
0.121052
0.168776
0.208947
0.242684
-0.902952
-0.903693
-0.902514
-0.896031
-0.881719
-0.85893
-0.827736
-0.78794
-0.738975
-0.680167
-0.61087
-0.53077
-0.441303
-0.347824
-0.256931
-0.172449
-0.0958714
-0.0276333
0.0325145
0.085166
0.130931
0.170012
0.203311
-0.824149
-0.824957
-0.823574
-0.816894
-0.802676
-0.780449
-0.750471
-0.712743
-0.666994
-0.613072
-0.551057
-0.481435
-0.405765
-0.32745
-0.250478
-0.177529
-0.109986
-0.0485334
0.00665913
0.0557684
0.0990673
0.136525
0.168877
-0.751907
-0.752728
-0.751224
-0.744466
-0.730446
-0.708992
-0.68064
-0.645606
-0.603826
-0.555348
-0.500523
-0.440067
-0.375335
-0.308611
-0.242479
-0.178916
-0.119138
-0.0638836
-0.0135275
0.0318761
0.0724014
0.107878
0.138916
-0.685923
-0.686691
-0.685072
-0.67829
-0.664694
-0.644427
-0.618138
-0.586149
-0.548501
-0.505311
-0.45699
-0.404267
-0.348279
-0.290652
-0.233188
-0.177405
-0.124366
-0.0747726
-0.029058
0.0126176
0.0502228
0.0835104
0.112994
-0.625594
-0.626247
-0.624547
-0.61791
-0.605095
-0.58641
-0.56245
-0.533534
-0.499766
-0.461314
-0.418597
-0.3723
-0.32339
-0.273107
-0.222786
-0.173617
-0.126512
-0.0820967
-0.0407751
-0.00273872
0.0319283
0.0629395
0.0907266
-0.569938
-0.570505
-0.568861
-0.562668
-0.550975
-0.534079
-0.512451
-0.486388
-0.456063
-0.421718
-0.38378
-0.342889
-0.299879
-0.255738
-0.211495
-0.168083
-0.126262
-0.0865661
-0.0493411
-0.0147713
0.0170321
0.0457632
0.0717815
-0.517962
-0.518498
-0.517068
-0.5116
-0.50123
-0.486137
-0.466696
-0.443211
-0.415944
-0.385208
-0.351446
-0.315248
-0.277335
-0.238504
-0.199556
-0.161225
-0.124122
-0.0886968
-0.055239
-0.0239125
0.00515477
0.031648
0.0558638
-0.469047
-0.46958
-0.468468
-0.463863
-0.454847
-0.441456
-0.424029
-0.402913
-0.378443
-0.350984
-0.320982
-0.288976
-0.255574
-0.221419
-0.187137
-0.153305
-0.120407
-0.0888208
-0.0587948
-0.0304768
-0.00400525
0.020305
0.0426974
-0.422925
-0.423498
-0.422766
-0.419021
-0.411253
-0.399402
-0.383821
-0.364908
-0.343042
-0.318612
-0.292047
-0.263822
-0.234444
-0.204426
-0.174265
-0.144413
-0.11526
-0.0871213
-0.060222
-0.0347023
-0.0107049
0.0114646
0.0320074
-0.379401
-0.380094
-0.379791
-0.376821
-0.37012
-0.359619
-0.34571
-0.328831
-0.309379
-0.287739
-0.264303
-0.23948
-0.213685
-0.187333
-0.160818
-0.134504
-0.108707
-0.0836951
-0.0596774
-0.0367939
-0.0151869
0.00485771
0.02351
-0.338083
-0.338977
-0.339123
-0.33681
-0.330984
-0.321644
-0.309232
-0.294207
-0.276969
-0.257875
-0.237274
-0.215508
-0.192918
-0.169839
-0.14659
-0.123465
-0.100728
-0.0786097
-0.057305
-0.0369546
-0.0176983
0.000207404
0.0169115
-0.29833
-0.299451
-0.299997
-0.298196
-0.293075
-0.284738
-0.273671
-0.260345
-0.245142
-0.228387
-0.210375
-0.191392
-0.171718
-0.151624
-0.13137
-0.111196
-0.0913246
-0.0719569
-0.0532701
-0.0354037
-0.0184964
-0.00276981
0.011914
-0.259372
-0.260668
-0.26147
-0.260001
-0.255434
-0.247982
-0.238164
-0.22644
-0.213162
-0.19861
-0.183031
-0.166658
-0.149722
-0.132441
-0.115024
-0.0976691
-0.0805619
-0.063876
-0.0477689
-0.0323768
-0.0178433
-0.00435493
0.00822696
-0.220443
-0.221819
-0.222648
-0.221291
-0.217129
-0.21049
-0.201893
-0.191758
-0.180382
-0.167993
-0.154791
-0.140965
-0.126696
-0.11216
-0.0975215
-0.0829412
-0.068571
-0.0545542
-0.0410243
-0.0281142
-0.015991
-0.00481335
0.00557853
-0.181072
-0.182378
-0.182953
-0.181463
-0.177573
-0.171725
-0.164392
-0.155905
-0.146482
-0.136295
-0.125494
-0.114226
-0.10263
-0.0908393
-0.078984
-0.0671878
-0.0555683
-0.0442346
-0.0332869
-0.0228476
-0.0131571
-0.00437882
0.00372391
-0.14185
-0.14292
-0.142766
-0.140768
-0.137022
-0.131987
-0.125996
-0.119238
-0.111835
-0.103895
-0.0955239
-0.0868264
-0.0779047
-0.0688579
-0.0597817
-0.0507664
-0.0418947
-0.0332337
-0.0248161
-0.0167131
-0.00943677
-0.00323866
0.00242259
-0.101447
-0.104957
-0.102285
-0.0989519
-0.0953326
-0.0912719
-0.0867797
-0.0818759
-0.076588
-0.070965
-0.0650706
-0.058974
-0.0527455
-0.0464542
-0.040165
-0.0339365
-0.0278163
-0.0218148
-0.015802
-0.0096358
-0.00460017
-0.00147688
0.00145328
-0.0446634
-0.0594952
-0.0491321
-0.0445601
-0.0419058
-0.0396209
-0.037362
-0.035016
-0.032544
-0.0299512
-0.0272632
-0.0245128
-0.0217343
-0.0189605
-0.0162202
-0.0135337
-0.010906
-0.00828794
-0.00537785
-0.0014908
0.000133439
5.6483e-05
0.000441064
1.67505
1.61167
1.59012
1.54859
1.81276
1.72958
1.66037
1.59836
1.78257
1.70932
1.6419
1.58303
1.71539
1.65759
1.59926
1.54602
1.64149
1.59349
1.54257
1.49543
1.56181
1.52133
1.47759
1.43682
1.47973
1.44554
1.40837
1.37361
1.39728
1.36838
1.33695
1.30758
1.31524
1.29096
1.26454
1.2399
1.23365
1.21362
1.19172
1.17127
1.15231
1.13627
1.11859
1.10205
1.07131
1.05903
1.04535
1.0325
0.990963
0.982227
0.972341
0.962984
0.911442
0.906129
0.899886
0.893879
0.832972
0.831002
0.82831
0.825556
0.756016
0.75731
0.758076
0.758471
0.68112
0.68559
0.689696
0.693111
0.608849
0.616352
0.623635
0.629905
0.539963
0.550255
0.560452
0.569335
0.475282
0.488014
0.500761
0.511925
0.415455
0.430184
0.44503
0.458082
0.360848
0.377088
0.393545
0.408066
0.311539
0.328812
0.346403
0.361984
0.267387
0.285257
0.30355
0.319823
0.228112
0.246208
0.264832
0.281479
0.193364
0.211383
0.230035
0.246793
0.162778
0.180487
0.198925
0.215573
0.136006
0.153229
0.171257
0.187611
0.112734
0.129335
0.146791
0.162689
0.0926723
0.108544
0.125286
0.140579
0.0755518
0.0905974
0.106495
0.121043
0.0611035
0.0752306
0.0901596
0.103829
0.0490494
0.0621655
0.0760072
0.0886739
0.0390981
0.0511098
0.0637539
0.0753074
0.0309493
0.0417655
0.0531129
0.0634589
0.024303
0.0338388
0.0438048
0.0528678
0.0188706
0.0270508
0.0355678
0.0432915
0.0143858
0.0211477
0.0281655
0.0345123
0.0106106
0.0159048
0.0213916
0.0263411
0.00731395
0.0111103
0.0150527
0.018593
0.00416911
0.00642397
0.00882621
0.0109886
0.00107426
0.00182304
0.00271844
0.00352512
1.44401
1.39868
1.3448
1.29172
1.24705
1.20741
1.17109
1.13775
1.10736
1.07999
1.05568
1.03442
1.01616
1.00083
0.988429
0.97918
0.973412
0.970913
0.970399
1.49988
1.41823
1.35268
1.29448
1.24544
1.20303
1.16516
1.13097
1.10012
1.07251
1.04806
1.02671
1.00836
0.992953
0.9805
0.971258
0.965576
0.96315
0.962679
1.49875
1.41557
1.34708
1.28753
1.23704
1.19348
1.15493
1.12043
1.08949
1.06191
1.03754
1.0163
0.998069
0.982767
0.970437
0.961348
0.955825
0.953501
0.953066
1.47192
1.39538
1.32935
1.27142
1.22169
1.17847
1.14022
1.10605
1.07548
1.04826
1.02426
1.00336
0.985428
0.970405
0.958339
0.949503
0.944187
0.94198
0.941582
1.43091
1.36273
1.30183
1.24745
1.2
1.15831
1.12121
1.088
1.05827
1.0318
1.00844
0.988099
0.970662
0.956067
0.944372
0.935845
0.930748
0.92865
0.928282
1.3813
1.32156
1.2668
1.21698
1.17278
1.13345
1.09819
1.06648
1.03801
1.01261
0.990182
0.970626
0.953859
0.939828
0.928601
0.920434
0.915572
0.913582
0.913242
1.32622
1.27446
1.22605
1.18123
1.14082
1.10442
1.07151
1.04173
1.01488
0.990859
0.969596
0.951031
0.935097
0.921758
0.911088
0.903337
0.898733
0.896859
0.896545
1.26749
1.22311
1.1809
1.14121
1.1049
1.07179
1.04157
1.01405
0.989113
0.966715
0.946834
0.929437
0.914483
0.90195
0.891922
0.884641
0.880322
0.878572
0.878286
1.20629
1.16868
1.13241
1.09781
1.06573
1.03611
1.00883
0.983794
0.960983
0.940406
0.92208
0.906
0.892147
0.88052
0.871207
0.864445
0.860438
0.858822
0.858564
1.14344
1.11208
1.08142
1.05179
1.02394
0.997923
0.973711
0.951319
0.93079
0.912181
0.895541
0.880893
0.86824
0.857598
0.849063
0.842861
0.83919
0.837715
0.837487
1.07952
1.05396
1.02862
1.0038
0.98012
0.957719
0.936649
0.916992
0.898844
0.882301
0.867439
0.854305
0.842925
0.833328
0.825616
0.820009
0.816692
0.815367
0.81517
1.01497
0.99487
0.974598
0.954385
0.934788
0.915972
0.898054
0.881168
0.865452
0.851029
0.838
0.826433
0.816371
0.80786
0.801005
0.796015
0.793067
0.791897
0.791731
0.950198
0.935294
0.919844
0.904061
0.888418
0.873114
0.858315
0.844193
0.830915
0.818629
0.807453
0.797476
0.788755
0.78135
0.77537
0.771011
0.768439
0.767427
0.767293
0.885631
0.87568
0.864829
0.853282
0.841446
0.82955
0.817797
0.806392
0.795522
0.785355
0.776023
0.767631
0.760251
0.753955
0.748853
0.745128
0.742935
0.742082
0.74198
0.821687
0.816463
0.809986
0.80247
0.794273
0.785651
0.776842
0.768072
0.759549
0.751451
0.743926
0.73709
0.731032
0.72583
0.721597
0.7185
0.716681
0.715986
0.715915
0.758808
0.758071
0.75573
0.752021
0.747269
0.741762
0.735763
0.72952
0.723251
0.717147
0.711368
0.70604
0.701263
0.697126
0.693739
0.691255
0.689804
0.689262
0.689221
0.697443
0.700922
0.702449
0.702298
0.700775
0.698196
0.694849
0.690995
0.686865
0.682657
0.67854
0.674652
0.671103
0.667988
0.665414
0.663521
0.662422
0.662028
0.662016
0.637986
0.645388
0.650494
0.653632
0.655098
0.655236
0.654357
0.652735
0.650606
0.648176
0.645623
0.643091
0.6407
0.638551
0.636749
0.635417
0.634655
0.634401
0.634415
0.580835
0.591803
0.600165
0.606303
0.610501
0.61313
0.614519
0.61495
0.614667
0.613882
0.612776
0.611504
0.610192
0.608945
0.607865
0.607058
0.606611
0.606488
0.606526
0.526406
0.540501
0.551743
0.560553
0.567205
0.572084
0.575528
0.577823
0.579219
0.57993
0.580146
0.580026
0.579703
0.579286
0.578871
0.57855
0.578393
0.578391
0.578452
0.475042
0.491772
0.505478
0.516606
0.525408
0.532273
0.537542
0.541502
0.5444
0.546455
0.547859
0.548777
0.549347
0.549681
0.54987
0.54999
0.550097
0.550204
0.550285
0.426976
0.445828
0.461567
0.474643
0.485278
0.493852
0.500703
0.506113
0.510327
0.513564
0.516017
0.517855
0.51922
0.520223
0.520951
0.521465
0.521808
0.52201
0.52211
0.382334
0.402801
0.420144
0.434796
0.446941
0.456941
0.465125
0.471764
0.477102
0.481353
0.484711
0.487346
0.489402
0.490991
0.492192
0.493052
0.493601
0.493886
0.494002
0.341146
0.362751
0.381284
0.397148
0.410481
0.421625
0.43089
0.438538
0.444803
0.449898
0.454015
0.457323
0.459965
0.462053
0.463659
0.464817
0.465542
0.465898
0.466023
0.303364
0.325674
0.345008
0.361733
0.375944
0.387953
0.398051
0.406487
0.413487
0.419258
0.423988
0.427844
0.430968
0.433469
0.435412
0.436816
0.437688
0.438102
0.438234
0.268889
0.291514
0.311292
0.328548
0.343338
0.355942
0.366632
0.375642
0.383188
0.389469
0.394669
0.398952
0.402456
0.405284
0.407496
0.409099
0.410088
0.410547
0.410682
0.237579
0.260177
0.28007
0.297549
0.312635
0.325579
0.33663
0.346008
0.353918
0.360551
0.366085
0.370677
0.374461
0.377535
0.37995
0.381703
0.38278
0.383272
0.383407
0.209266
0.23153
0.251242
0.26866
0.28378
0.296823
0.308018
0.31757
0.325673
0.332508
0.338245
0.343035
0.347004
0.350244
0.352799
0.354656
0.355794
0.356306
0.35644
0.183758
0.205417
0.224679
0.241779
0.25669
0.269609
0.280747
0.290294
0.29843
0.305328
0.311147
0.31603
0.320094
0.323426
0.326061
0.327978
0.32915
0.329672
0.329801
0.160847
0.181657
0.20023
0.216777
0.23126
0.243855
0.254753
0.264131
0.272155
0.278987
0.284776
0.289654
0.293731
0.297085
0.299744
0.30168
0.30286
0.303382
0.303506
0.140308
0.160053
0.177722
0.193508
0.207369
0.219461
0.229956
0.239017
0.246799
0.25345
0.259108
0.263893
0.267906
0.271217
0.273847
0.275764
0.276931
0.277443
0.277559
0.121905
0.140392
0.15697
0.171816
0.184885
0.196315
0.206265
0.214882
0.222306
0.228673
0.234107
0.238719
0.2426
0.245809
0.248363
0.250227
0.251359
0.251852
0.251961
0.105393
0.122456
0.137783
0.151534
0.163666
0.174302
0.183584
0.191645
0.19861
0.204603
0.209734
0.214102
0.217787
0.220842
0.223278
0.225056
0.226135
0.226603
0.226702
0.0905233
0.106024
0.119965
0.132494
0.143569
0.153299
0.161811
0.169221
0.175643
0.181183
0.185941
0.190003
0.193438
0.196291
0.198571
0.200236
0.201246
0.201682
0.201772
0.0770516
0.0908768
0.103326
0.114529
0.124451
0.133184
0.140841
0.147523
0.153328
0.158351
0.162675
0.166376
0.169513
0.172125
0.174215
0.175744
0.176671
0.17707
0.17715
0.0647446
0.0768079
0.087681
0.0974799
0.106171
0.113836
0.12057
0.12646
0.13159
0.136039
0.139879
0.143173
0.145972
0.148307
0.15018
0.151552
0.152386
0.152744
0.152815
0.0533859
0.0636231
0.0728584
0.0811925
0.0885961
0.0951375
0.100896
0.105943
0.110349
0.114179
0.117493
0.120342
0.122768
0.124798
0.12643
0.12763
0.128362
0.128679
0.12874
0.0427814
0.0511467
0.0587002
0.065527
0.0716016
0.0769784
0.0817208
0.0858865
0.0895306
0.0927052
0.095458
0.0978307
0.0998568
0.101557
0.10293
0.103946
0.104571
0.104845
0.1049
0.0327556
0.0392142
0.0450551
0.0503455
0.055062
0.059245
0.0629422
0.0661966
0.0690496
0.0715404
0.0737054
0.0755766
0.0771802
0.0785327
0.0796341
0.0804606
0.0809807
0.0812168
0.0812665
0.0231177
0.0276278
0.0317295
0.0354622
0.0388004
0.0417693
0.0444002
0.0467217
0.0487617
0.0505471
0.0521033
0.0534535
0.0546178
0.0556109
0.0564386
0.0570898
0.057534
0.0577597
0.0578166
0.0136863
0.016233
0.0185765
0.0207414
0.0226931
0.0244392
0.0259943
0.0273721
0.0285873
0.0296549
0.0305898
0.0314068
0.0321203
0.0327458
0.0332996
0.0337903
0.0341914
0.0344439
0.0345306
0.00443152
0.00516779
0.00587472
0.00655817
0.00718864
0.00776123
0.00827708
0.00873841
0.00914861
0.00951196
0.00983334
0.0101181
0.0103721
0.010602
0.0108157
0.0110193
0.0112046
0.0113442
0.0114102
)
;

boundaryField
{
    leftWall
    {
        type            fixedFluxPressure;
        gradient        uniform 0;
        value           nonuniform List<scalar> 
50
(
1363.39
1363.15
1364.18
1366.71
1370.81
1376.61
1384.17
1393.48
1410.81
1441.85
1480.39
1526.12
1578.67
1637.56
1702.31
1772.4
1847.33
1926.55
2009.53
2095.75
2184.72
2276.33
2369.69
2460.57
2550.19
2504.74
810.503
-1.6403
-1.30589
-1.19447
-1.0828
-0.988936
-0.902952
-0.824149
-0.751907
-0.685923
-0.625594
-0.569938
-0.517962
-0.469047
-0.422925
-0.379401
-0.338083
-0.29833
-0.259372
-0.220443
-0.181072
-0.14185
-0.101447
-0.0446634
)
;
    }
    rightWall
    {
        type            fixedFluxPressure;
        gradient        uniform 0;
        value           nonuniform List<scalar> 
50
(
0.982443
0.982437
0.982107
0.981414
0.980345
0.978879
0.977001
0.974694
0.970399
0.962679
0.953066
0.941582
0.928282
0.913242
0.896545
0.878286
0.858564
0.837487
0.81517
0.791731
0.767293
0.74198
0.715915
0.689221
0.662016
0.634415
0.606526
0.578452
0.550285
0.52211
0.494002
0.466023
0.438234
0.410682
0.383407
0.35644
0.329801
0.303506
0.277559
0.251961
0.226702
0.201772
0.17715
0.152815
0.12874
0.1049
0.0812665
0.0578166
0.0345306
0.0114102
)
;
    }
    lowerWall
    {
        type            fixedFluxPressure;
        gradient        uniform 0;
        value           nonuniform List<scalar> 
62
(
1363.39
1361.79
1351
1328.32
1292.7
1243.96
1181.78
1105.1
1011.98
897.014
755.14
581.038
346.81
125.644
29.2439
5.73898
3.98245
3.41257
3.07075
2.8779
2.75935
2.69386
2.67186
2.67186
2.66615
2.64573
2.60936
2.55687
2.48654
2.3944
2.27366
1.67505
1.61167
1.59012
1.54859
1.30643
1.30643
1.30779
1.31078
1.31544
1.32068
1.32421
1.33916
1.30643
1.30204
1.28698
1.26316
1.2342
1.20298
1.17153
1.14116
1.1128
1.08695
1.06388
1.04371
1.02641
1.01201
1.00044
0.991782
0.986028
0.9831
0.982443
)
;
    }
    atmosphere
    {
        type            totalPressure;
        rho             rho;
        psi             none;
        gamma           1;
        p0              uniform 0;
        value           nonuniform List<scalar> 
46
(
-0.00587873
-0.00732775
-0.00651637
-0.00595287
-0.00544699
-0.00495744
-0.00446198
-0.00395364
-0.00343677
-0.00292179
-0.00242134
-0.00194799
-0.00151303
-0.00112574
-0.000792884
-0.000518574
-0.000304294
-0.000149334
-5.15128e-05
-6.74237e-06
0
0
0
0
0
0
0
0
0
0
0
0
0
0
0
0
0
0
0
0
0
0
0
0
0
0
)
;
    }
    defaultFaces
    {
        type            empty;
    }
}


// ************************************************************************* //
