/*--------------------------------*- C++ -*----------------------------------*\
| =========                 |                                                 |
| \\      /  F ield         | OpenFOAM: The Open Source CFD Toolbox           |
|  \\    /   O peration     | Version:  v2012                                 |
|   \\  /    A nd           | Website:  www.openfoam.com                      |
|    \\/     M anipulation  |                                                 |
\*---------------------------------------------------------------------------*/
FoamFile
{
    version     2.0;
    format      ascii;
    class       surfaceScalarField;
    location    "0.05";
    object      phi;
}
// * * * * * * * * * * * * * * * * * * * * * * * * * * * * * * * * * * * * * //

dimensions      [0 3 -1 0 0 0 0];
oriented        oriented;


internalField   nonuniform List<scalar> 
4432
(
1.86109e-06
-1.86109e-06
5.02738e-06
-3.16627e-06
8.78008e-06
-3.75271e-06
1.26818e-05
-3.90174e-06
1.66468e-05
-3.96503e-06
2.07722e-05
-4.12534e-06
2.52323e-05
-4.46017e-06
3.02745e-05
-5.04214e-06
3.62409e-05
-5.96639e-06
4.39019e-05
-7.661e-06
5.41191e-05
-1.02172e-05
6.51051e-05
-1.0986e-05
7.517e-05
-1.0065e-05
8.40036e-05
-8.83354e-06
9.13874e-05
-7.38381e-06
9.23684e-05
-9.81042e-07
8.59349e-05
6.43345e-06
6.81599e-05
1.7775e-05
4.91742e-05
1.89854e-05
3.41478e-05
1.50269e-05
2.09689e-05
1.31794e-05
8.96419e-06
1.20044e-05
8.9644e-06
2.48795e-06
-4.34904e-06
5.55718e-06
-6.23551e-06
8.91381e-06
-7.10933e-06
1.24347e-05
-7.42259e-06
1.60811e-05
-7.61145e-06
1.99171e-05
-7.96133e-06
2.40765e-05
-8.61958e-06
2.87526e-05
-9.71825e-06
3.42196e-05
-1.14334e-05
4.0862e-05
-1.43034e-05
4.88255e-05
-1.81807e-05
5.84632e-05
-2.06238e-05
6.90506e-05
-2.06523e-05
7.71645e-05
-1.69475e-05
7.96913e-05
-9.91055e-06
8.6202e-05
-7.49173e-06
8.10965e-05
1.15387e-05
6.51484e-05
3.37236e-05
4.87603e-05
3.53734e-05
3.51172e-05
2.86697e-05
2.28562e-05
2.54411e-05
1.11062e-05
2.37546e-05
2.00705e-05
2.93188e-06
-7.28092e-06
5.85608e-06
-9.15971e-06
8.82121e-06
-1.00745e-05
1.19197e-05
-1.05211e-05
1.51815e-05
-1.08733e-05
1.86589e-05
-1.14386e-05
2.24473e-05
-1.24081e-05
2.66846e-05
-1.39555e-05
3.15587e-05
-1.63075e-05
3.72285e-05
-1.99732e-05
4.3706e-05
-2.46582e-05
5.15493e-05
-2.8467e-05
6.07315e-05
-2.98346e-05
6.70551e-05
-2.32711e-05
6.67306e-05
-9.58606e-06
6.427e-05
-5.03111e-06
5.59755e-05
1.98328e-05
4.75442e-05
4.2155e-05
3.97527e-05
4.31648e-05
3.10773e-05
3.73451e-05
2.18192e-05
3.46996e-05
1.17703e-05
3.38035e-05
3.18406e-05
3.12783e-06
-1.04088e-05
5.95655e-06
-1.19884e-05
8.63817e-06
-1.27561e-05
1.13985e-05
-1.32814e-05
1.43282e-05
-1.38029e-05
1.74821e-05
-1.45926e-05
2.09291e-05
-1.5855e-05
2.47603e-05
-1.77867e-05
2.90838e-05
-2.06311e-05
3.39305e-05
-2.48199e-05
3.92512e-05
-2.99789e-05
4.54019e-05
-3.46177e-05
5.23244e-05
-3.67571e-05
5.74899e-05
-2.84365e-05
5.94865e-05
-1.15826e-05
5.27014e-05
1.75391e-06
4.35168e-05
2.9017e-05
3.83664e-05
4.73056e-05
3.39986e-05
4.75325e-05
2.8099e-05
4.32446e-05
2.09889e-05
4.18101e-05
1.22327e-05
4.25596e-05
4.4073e-05
3.13945e-06
-1.35482e-05
5.90382e-06
-1.47528e-05
8.41343e-06
-1.52657e-05
1.09438e-05
-1.58118e-05
1.3624e-05
-1.64832e-05
1.65173e-05
-1.74858e-05
1.96766e-05
-1.90143e-05
2.31585e-05
-2.12686e-05
2.70106e-05
-2.44831e-05
3.11906e-05
-2.89999e-05
3.5586e-05
-3.43743e-05
4.03702e-05
-3.94019e-05
4.55618e-05
-4.19487e-05
5.05574e-05
-3.34321e-05
5.42833e-05
-1.53085e-05
4.66854e-05
9.35194e-06
3.79504e-05
3.77515e-05
3.3831e-05
5.1425e-05
3.05521e-05
5.08118e-05
2.60896e-05
4.77071e-05
2.04713e-05
4.74284e-05
1.27145e-05
5.03163e-05
5.67875e-05
3.05115e-06
-1.65994e-05
5.76893e-06
-1.74706e-05
8.20137e-06
-1.76981e-05
1.06061e-05
-1.82164e-05
1.31258e-05
-1.9003e-05
1.58316e-05
-2.01916e-05
1.87693e-05
-2.19521e-05
2.19729e-05
-2.44722e-05
2.54506e-05
-2.79608e-05
2.91195e-05
-3.26688e-05
3.28184e-05
-3.80732e-05
3.66036e-05
-4.31872e-05
4.06785e-05
-4.60236e-05
4.56335e-05
-3.83872e-05
4.96556e-05
-1.93307e-05
4.26579e-05
1.63497e-05
3.50909e-05
4.53181e-05
3.13677e-05
5.51482e-05
2.84343e-05
5.37455e-05
2.48568e-05
5.12847e-05
2.03715e-05
5.19138e-05
1.3544e-05
5.7144e-05
7.03316e-05
2.94294e-06
-1.95423e-05
5.63925e-06
-2.01669e-05
8.07205e-06
-2.01309e-05
1.04426e-05
-2.0587e-05
1.28876e-05
-2.1448e-05
1.54831e-05
-2.2787e-05
1.82731e-05
-2.47421e-05
2.12794e-05
-2.74785e-05
2.44887e-05
-3.11701e-05
2.78016e-05
-3.59817e-05
3.10195e-05
-4.12911e-05
3.41145e-05
-4.62822e-05
3.74078e-05
-4.93168e-05
4.18661e-05
-4.28455e-05
4.52197e-05
-2.26844e-05
3.94541e-05
2.21155e-05
3.3319e-05
5.1453e-05
2.99546e-05
5.85126e-05
2.72831e-05
5.64171e-05
2.43832e-05
5.41845e-05
2.09188e-05
5.53782e-05
1.50913e-05
6.29719e-05
8.54229e-05
2.87036e-06
-2.24127e-05
5.58389e-06
-2.28804e-05
8.07559e-06
-2.26226e-05
1.04839e-05
-2.29953e-05
1.29286e-05
-2.38927e-05
1.54867e-05
-2.53452e-05
1.82027e-05
-2.74581e-05
2.10927e-05
-3.03685e-05
2.41365e-05
-3.42139e-05
2.72289e-05
-3.90741e-05
3.01621e-05
-4.42243e-05
3.28713e-05
-4.89914e-05
3.55952e-05
-5.20407e-05
3.89496e-05
-4.61999e-05
4.13434e-05
-2.50782e-05
3.69255e-05
2.65335e-05
3.22846e-05
5.60937e-05
2.93904e-05
6.14067e-05
2.70391e-05
5.87686e-05
2.4773e-05
5.64505e-05
2.24169e-05
5.77342e-05
1.80674e-05
6.73216e-05
0.00010349
2.21209e-06
-2.21209e-06
4.85836e-06
-2.64615e-06
6.80687e-06
-1.94884e-06
7.89919e-06
-1.09244e-06
8.31917e-06
-4.19915e-07
8.28062e-06
3.82502e-08
7.95482e-06
3.25963e-07
7.4553e-06
4.99216e-07
6.85458e-06
6.0113e-07
6.19579e-06
6.58618e-07
5.50574e-06
6.90038e-07
4.80006e-06
7.0591e-07
4.08449e-06
7.15191e-07
3.35994e-06
7.24858e-07
2.61833e-06
7.41401e-07
1.85387e-06
7.64709e-07
1.08307e-06
7.70477e-07
4.12334e-07
6.71015e-07
4.12303e-07
2.66728e-06
-4.87981e-06
5.1166e-06
-5.09541e-06
6.77969e-06
-3.61207e-06
7.68449e-06
-1.9976e-06
8.00899e-06
-7.44238e-07
7.93527e-06
1.11532e-07
7.60756e-06
6.5411e-07
7.12221e-06
9.84127e-07
6.54554e-06
1.17807e-06
5.91775e-06
1.28643e-06
5.2634e-06
1.34405e-06
4.59695e-06
1.37294e-06
3.92315e-06
1.38862e-06
3.24345e-06
1.4049e-06
2.55325e-06
1.43119e-06
1.85307e-06
1.46535e-06
1.1585e-06
1.46476e-06
5.17067e-07
1.31259e-06
9.29391e-07
3.07472e-06
-7.95484e-06
5.39503e-06
-7.41574e-06
6.7573e-06
-4.97435e-06
7.42255e-06
-2.66317e-06
7.60615e-06
-9.27748e-07
7.4638e-06
2.53486e-07
7.11348e-06
1.0046e-06
6.63616e-06
1.4611e-06
6.0865e-06
1.72795e-06
5.49767e-06
1.87558e-06
4.88953e-06
1.952e-06
4.27407e-06
1.9887e-06
3.65533e-06
2.00706e-06
3.03568e-06
2.02481e-06
2.41425e-06
2.05235e-06
1.79523e-06
2.08467e-06
1.18644e-06
2.07341e-06
5.90237e-07
1.90886e-06
1.51968e-06
3.45519e-06
-1.14102e-05
5.76921e-06
-9.72987e-06
6.87767e-06
-6.0828e-06
7.30164e-06
-3.08742e-06
7.32896e-06
-9.55057e-07
7.1034e-06
4.78733e-07
6.71858e-06
1.38963e-06
6.238e-06
1.94163e-06
5.70428e-06
2.26181e-06
5.14342e-06
2.43659e-06
4.57077e-06
2.52438e-06
3.99585e-06
2.56382e-06
3.42216e-06
2.58061e-06
2.85274e-06
2.59445e-06
2.28917e-06
2.61572e-06
1.73595e-06
2.63808e-06
1.19108e-06
2.61824e-06
6.26098e-07
2.4739e-06
2.14583e-06
3.90376e-06
-1.53141e-05
6.31604e-06
-1.21424e-05
7.18696e-06
-6.95366e-06
7.36163e-06
-3.26228e-06
7.21833e-06
-8.11647e-07
6.89413e-06
8.02784e-07
6.46022e-06
1.82371e-06
5.96237e-06
2.43941e-06
5.43109e-06
2.79308e-06
4.88507e-06
2.98271e-06
4.33517e-06
3.07413e-06
3.78824e-06
3.11093e-06
3.24703e-06
3.12174e-06
2.71447e-06
3.12715e-06
2.19277e-06
3.13728e-06
1.68444e-06
3.14654e-06
1.17937e-06
3.12335e-06
6.32882e-07
3.02041e-06
2.77876e-06
4.6239e-06
-1.99379e-05
7.19143e-06
-1.47101e-05
7.75583e-06
-7.51791e-06
7.64441e-06
-3.15093e-06
7.30696e-06
-4.74109e-07
6.86485e-06
1.24477e-06
6.3647e-06
2.32394e-06
5.83355e-06
2.97051e-06
5.28943e-06
3.33716e-06
4.74346e-06
3.52882e-06
4.20191e-06
3.61565e-06
3.6688e-06
3.64419e-06
3.14563e-06
3.64483e-06
2.63435e-06
3.63852e-06
2.13615e-06
3.6354e-06
1.65043e-06
3.63238e-06
1.16207e-06
3.61176e-06
6.24086e-07
3.55838e-06
3.40286e-06
6.38239e-06
-2.63202e-05
8.65738e-06
-1.69853e-05
8.66859e-06
-7.52905e-06
8.19551e-06
-2.67791e-06
7.62773e-06
9.37017e-08
7.04279e-06
1.82957e-06
6.45592e-06
2.91082e-06
5.87302e-06
3.55338e-06
5.29883e-06
3.91134e-06
4.73645e-06
4.09133e-06
4.18732e-06
4.16477e-06
3.65238e-06
4.17921e-06
3.1314e-06
4.16574e-06
2.62455e-06
4.14545e-06
2.13081e-06
4.12913e-06
1.64608e-06
4.1172e-06
1.15339e-06
4.10451e-06
6.13597e-07
4.09813e-06
4.01645e-06
1.13874e-05
-3.77074e-05
1.1028e-05
-1.66262e-05
9.96532e-06
-6.46635e-06
9.02469e-06
-1.73735e-06
8.18895e-06
9.29467e-07
7.4372e-06
2.58125e-06
6.74328e-06
3.60477e-06
6.08964e-06
4.20706e-06
5.46726e-06
4.53372e-06
4.87107e-06
4.68759e-06
4.29754e-06
4.73827e-06
3.74435e-06
4.73243e-06
3.20916e-06
4.7009e-06
2.68987e-06
4.66482e-06
2.18279e-06
4.63624e-06
1.6806e-06
4.61944e-06
1.16622e-06
4.61891e-06
6.11657e-07
4.65263e-06
4.62811e-06
5.92592e-06
-2.83386e-05
1.18373e-05
-2.87918e-05
1.74017e-05
-2.8187e-05
2.27343e-05
-2.83279e-05
2.80267e-05
-2.91851e-05
3.34443e-05
-3.07628e-05
3.90832e-05
-3.30969e-05
4.49614e-05
-3.62467e-05
5.10123e-05
-4.02648e-05
5.70196e-05
-4.50813e-05
6.29408e-05
-5.01455e-05
6.83455e-05
-5.43961e-05
7.24697e-05
-5.61649e-05
7.61416e-05
-4.98718e-05
7.64676e-05
-2.54043e-05
7.07832e-05
3.2218e-05
6.61538e-05
6.07231e-05
6.21052e-05
6.54553e-05
5.85877e-05
6.22862e-05
5.60669e-05
5.89714e-05
5.57406e-05
5.80605e-05
6.3006e-05
6.00562e-05
6.2106e-05
0.00010439
5.734e-06
-3.40726e-05
1.14511e-05
-3.45088e-05
1.68884e-05
-3.36243e-05
2.20992e-05
-3.35387e-05
2.72024e-05
-3.42883e-05
3.23165e-05
-3.58769e-05
3.75077e-05
-3.82881e-05
4.27695e-05
-4.15085e-05
4.80174e-05
-4.55128e-05
5.30961e-05
-5.016e-05
5.78555e-05
-5.49049e-05
6.1915e-05
-5.84557e-05
6.47727e-05
-5.90226e-05
6.65667e-05
-5.16658e-05
6.27329e-05
-2.15705e-05
5.99261e-05
3.5025e-05
5.89169e-05
6.17323e-05
5.77389e-05
6.66333e-05
5.63928e-05
6.36324e-05
5.57925e-05
5.95718e-05
5.7498e-05
5.63552e-05
6.40937e-05
5.34607e-05
4.81865e-05
7.80129e-05
5.38423e-06
-3.94568e-05
1.07046e-05
-3.98292e-05
1.57797e-05
-3.86994e-05
2.06436e-05
-3.84026e-05
2.53706e-05
-3.90153e-05
3.00332e-05
-4.05395e-05
3.46626e-05
-4.29176e-05
3.92313e-05
-4.60771e-05
4.3651e-05
-4.99325e-05
4.77838e-05
-5.42928e-05
5.14856e-05
-5.86066e-05
5.4563e-05
-6.15331e-05
5.68559e-05
-6.13156e-05
5.88597e-05
-5.36696e-05
5.29159e-05
-1.56265e-05
5.08902e-05
3.70508e-05
5.13538e-05
6.12687e-05
5.1728e-05
6.62592e-05
5.1613e-05
6.37473e-05
5.16437e-05
5.95413e-05
5.26638e-05
5.53353e-05
5.53807e-05
5.07442e-05
4.35799e-05
5.99877e-05
4.94906e-06
-4.44059e-05
9.79418e-06
-4.46743e-05
1.44212e-05
-4.33265e-05
1.88528e-05
-4.28342e-05
2.31348e-05
-4.32973e-05
2.73055e-05
-4.47102e-05
3.13699e-05
-4.69819e-05
3.52878e-05
-4.99951e-05
3.89758e-05
-5.36205e-05
4.23214e-05
-5.76384e-05
4.52264e-05
-6.15116e-05
4.76446e-05
-6.39514e-05
4.95833e-05
-6.32543e-05
5.17459e-05
-5.58322e-05
4.58066e-05
-9.68708e-06
4.41968e-05
3.86607e-05
4.49564e-05
6.05091e-05
4.58069e-05
6.5409e-05
4.61991e-05
6.33549e-05
4.64451e-05
5.92953e-05
4.70013e-05
5.47791e-05
4.81416e-05
4.96038e-05
4.23108e-05
4.94105e-05
4.49353e-06
-4.88994e-05
8.85297e-06
-4.90337e-05
1.30154e-05
-4.74889e-05
1.69955e-05
-4.68143e-05
2.08214e-05
-4.71232e-05
2.451e-05
-4.83988e-05
2.80498e-05
-5.05217e-05
3.13959e-05
-5.33412e-05
3.44747e-05
-5.66993e-05
3.71998e-05
-6.03635e-05
3.95136e-05
-6.38254e-05
4.14522e-05
-6.589e-05
4.30767e-05
-6.48788e-05
4.50781e-05
-5.78337e-05
4.02294e-05
-4.83821e-06
3.8872e-05
4.00183e-05
3.95352e-05
5.98459e-05
4.04283e-05
6.4516e-05
4.09991e-05
6.27839e-05
4.13406e-05
5.8954e-05
4.16774e-05
5.44422e-05
4.20972e-05
4.91838e-05
4.21279e-05
4.228e-05
4.04321e-06
-5.29426e-05
7.93325e-06
-5.29238e-05
1.16449e-05
-5.12006e-05
1.51857e-05
-5.03551e-05
1.8573e-05
-5.05105e-05
2.18109e-05
-5.16367e-05
2.48795e-05
-5.35903e-05
2.77346e-05
-5.61963e-05
3.03136e-05
-5.92782e-05
3.25515e-05
-6.26015e-05
3.44188e-05
-6.56927e-05
3.59848e-05
-6.7456e-05
3.73121e-05
-6.62061e-05
3.89872e-05
-5.95088e-05
3.5369e-05
-1.21998e-06
3.42621e-05
4.11254e-05
3.47816e-05
5.93264e-05
3.55883e-05
6.37094e-05
3.61926e-05
6.21797e-05
3.65685e-05
5.85781e-05
3.68096e-05
5.42011e-05
3.69464e-05
4.9047e-05
4.22468e-05
3.68274e-05
3.60859e-06
-5.65512e-05
7.05444e-06
-5.63696e-05
1.03405e-05
-5.44866e-05
1.34675e-05
-5.34821e-05
1.64456e-05
-5.34886e-05
1.92717e-05
-5.44628e-05
2.19228e-05
-5.62415e-05
2.43581e-05
-5.86316e-05
2.65255e-05
-6.14457e-05
2.83768e-05
-6.44528e-05
2.98994e-05
-6.72153e-05
3.11718e-05
-6.87284e-05
3.22449e-05
-6.72791e-05
3.35865e-05
-6.08504e-05
3.08286e-05
1.53806e-06
3.00359e-05
4.19183e-05
3.04697e-05
5.88927e-05
3.11734e-05
6.30058e-05
3.17479e-05
6.16052e-05
3.21222e-05
5.8204e-05
3.23249e-05
5.39985e-05
3.23675e-05
4.90045e-05
4.24387e-05
3.21753e-05
3.19501e-06
-5.97462e-05
6.22501e-06
-5.93996e-05
9.11393e-06
-5.73756e-05
1.18567e-05
-5.62249e-05
1.44582e-05
-5.60901e-05
1.69117e-05
-5.69162e-05
1.91939e-05
-5.85237e-05
2.12688e-05
-6.07065e-05
2.3094e-05
-6.32709e-05
2.4634e-05
-6.59928e-05
2.58863e-05
-6.84676e-05
2.6928e-05
-6.97701e-05
2.77976e-05
-6.81488e-05
2.88457e-05
-6.18986e-05
2.67029e-05
3.68106e-06
2.61305e-05
4.24908e-05
2.64928e-05
5.85303e-05
2.70868e-05
6.24119e-05
2.75986e-05
6.10936e-05
2.79474e-05
5.78552e-05
2.81315e-05
5.38142e-05
2.81525e-05
4.89833e-05
4.26217e-05
2.79693e-05
2.80511e-06
-6.25513e-05
5.4485e-06
-6.2043e-05
7.96922e-06
-5.98963e-05
1.03574e-05
-5.8613e-05
1.26142e-05
-5.83469e-05
1.4731e-05
-5.90331e-05
1.66862e-05
-6.04789e-05
1.84489e-05
-6.24692e-05
1.99858e-05
-6.48078e-05
2.12717e-05
-6.72787e-05
2.23099e-05
-6.95059e-05
2.31712e-05
-7.06313e-05
2.3879e-05
-6.88566e-05
2.46737e-05
-6.26934e-05
2.29821e-05
5.37287e-06
2.25157e-05
4.29572e-05
2.27806e-05
5.82654e-05
2.32518e-05
6.19408e-05
2.36818e-05
6.06636e-05
2.3992e-05
5.75449e-05
2.41661e-05
5.36399e-05
2.41984e-05
4.89508e-05
4.27585e-05
2.40615e-05
2.44027e-06
-6.49916e-05
4.72624e-06
-6.43289e-05
6.90671e-06
-6.20768e-05
8.96818e-06
-6.06745e-05
1.09094e-05
-6.02881e-05
1.27211e-05
-6.08448e-05
1.4384e-05
-6.21418e-05
1.58729e-05
-6.39581e-05
1.7163e-05
-6.60978e-05
1.82384e-05
-6.8354e-05
1.91074e-05
-7.03749e-05
1.98306e-05
-7.13545e-05
2.04123e-05
-6.94383e-05
2.09866e-05
-6.32676e-05
1.95981e-05
6.76127e-06
1.91346e-05
4.34208e-05
1.92672e-05
5.81327e-05
1.96019e-05
6.16061e-05
1.99403e-05
6.03251e-05
2.02086e-05
5.72765e-05
2.03818e-05
5.34667e-05
2.0447e-05
4.88853e-05
4.28264e-05
2.03789e-05
2.10185e-06
-6.70935e-05
4.05897e-06
-6.6286e-05
5.92534e-06
-6.39431e-05
7.68545e-06
-6.24346e-05
9.33655e-06
-6.19392e-05
1.08697e-05
-6.23779e-05
1.22683e-05
-6.35404e-05
1.35127e-05
-6.52025e-05
1.45866e-05
-6.71717e-05
1.54843e-05
-6.92517e-05
1.62207e-05
-7.11113e-05
1.68452e-05
-7.19789e-05
1.73362e-05
-6.99293e-05
1.77192e-05
-6.36505e-05
1.64747e-05
8.00567e-06
1.59265e-05
4.39689e-05
1.58898e-05
5.81694e-05
1.60739e-05
6.14222e-05
1.63162e-05
6.00827e-05
1.65466e-05
5.70461e-05
1.67321e-05
5.32812e-05
1.68508e-05
4.87666e-05
4.28055e-05
1.68717e-05
1.7912e-06
-6.88847e-05
3.44773e-06
-6.79426e-05
5.02392e-06
-6.55193e-05
6.50483e-06
-6.39155e-05
7.88736e-06
-6.33218e-05
9.1636e-06
-6.36542e-05
1.03196e-05
-6.46964e-05
1.13407e-05
-6.62237e-05
1.22192e-05
-6.80502e-05
1.29616e-05
-6.99942e-05
1.35945e-05
-7.17442e-05
1.41603e-05
-7.25447e-05
1.46036e-05
-7.03725e-05
1.48215e-05
-6.38685e-05
1.35644e-05
9.26263e-06
1.28402e-05
4.46931e-05
1.25862e-05
5.84234e-05
1.25996e-05
6.14088e-05
1.27447e-05
5.99373e-05
1.29492e-05
5.68416e-05
1.31671e-05
5.30633e-05
1.33629e-05
4.85709e-05
4.26751e-05
1.34934e-05
1.5122e-06
-7.03968e-05
2.89761e-06
-6.9328e-05
4.20365e-06
-6.68254e-05
5.42279e-06
-6.51346e-05
6.55401e-06
-6.4453e-05
7.59082e-06
-6.4691e-05
8.52101e-06
-6.56266e-05
9.33359e-06
-6.70363e-05
1.00286e-05
-6.87452e-05
1.06281e-05
-7.05937e-05
1.11789e-05
-7.2295e-05
1.17297e-05
-7.30955e-05
1.21811e-05
-7.08239e-05
1.22678e-05
-6.39553e-05
1.08557e-05
1.06747e-05
9.83185e-06
4.57168e-05
9.28452e-06
5.89706e-05
9.09801e-06
6.15953e-05
9.15126e-06
5.9884e-05
9.35413e-06
5.66386e-05
9.6369e-06
5.27805e-05
9.94161e-06
4.82662e-05
4.24105e-05
1.02063e-05
1.2897e-06
-7.16865e-05
2.42474e-06
-7.04631e-05
3.46966e-06
-6.78703e-05
4.43684e-06
-6.61018e-05
5.33048e-06
-6.53466e-05
6.14411e-06
-6.55046e-05
6.86509e-06
-6.63475e-05
7.48249e-06
-6.76537e-05
8.00102e-06
-6.92637e-05
8.4581e-06
-7.10508e-05
8.93491e-06
-7.27718e-05
9.52179e-06
-7.36824e-05
1.00814e-05
-7.13836e-05
1.01689e-05
-6.40428e-05
8.41448e-06
1.24291e-05
6.84694e-06
4.72844e-05
5.87876e-06
5.99387e-05
5.4589e-06
6.20149e-05
5.44374e-06
5.98992e-05
5.6923e-06
5.63901e-05
6.09231e-06
5.23805e-05
6.55304e-06
4.78055e-05
4.19757e-05
6.98785e-06
1.14108e-06
-7.28276e-05
2.0163e-06
-7.13383e-05
2.80372e-06
-6.86577e-05
3.53334e-06
-6.68314e-05
4.21072e-06
-6.6024e-05
4.82645e-06
-6.61203e-05
5.36515e-06
-6.68862e-05
5.8122e-06
-6.81007e-05
6.16927e-06
-6.96208e-05
6.4769e-06
-7.13584e-05
6.85059e-06
-7.31455e-05
7.48698e-06
-7.43188e-05
8.3729e-06
-7.22694e-05
8.91529e-06
-6.45852e-05
6.28059e-06
1.50638e-05
3.70729e-06
4.98576e-05
2.15197e-06
6.14939e-05
1.50106e-06
6.26657e-05
1.49295e-06
5.99073e-05
1.88054e-06
5.60025e-05
2.4827e-06
5.17783e-05
3.16736e-06
4.71209e-05
4.13218e-05
3.82139e-06
8.19961e-07
-7.36476e-05
1.48979e-06
-7.20082e-05
2.10277e-06
-6.92707e-05
2.6661e-06
-6.73948e-05
3.18666e-06
-6.65446e-05
3.65991e-06
-6.65936e-05
4.07285e-06
-6.72991e-05
4.41062e-06
-6.84385e-05
4.66796e-06
-6.98782e-05
4.86828e-06
-7.15587e-05
5.10305e-06
-7.33803e-05
5.62596e-06
-7.48417e-05
6.75476e-06
-7.33982e-05
8.22512e-06
-6.60556e-05
3.78672e-06
1.95021e-05
-1.67189e-07
5.38113e-05
-2.34656e-06
6.3673e-05
-3.05781e-06
6.33768e-05
-2.86481e-06
5.97142e-05
-2.17015e-06
5.53077e-05
-1.23641e-06
5.08446e-05
-2.34769e-07
4.61193e-05
4.03868e-05
7.00316e-07
3.08114e-08
-7.36784e-05
7.11827e-07
-7.26892e-05
1.32361e-06
-6.98825e-05
1.85148e-06
-6.79226e-05
2.30882e-06
-6.70019e-05
2.7204e-06
-6.70051e-05
3.09404e-06
-6.76728e-05
3.43045e-06
-6.87749e-05
3.73395e-06
-7.01817e-05
4.03096e-06
-7.18557e-05
4.3884e-06
-7.37377e-05
4.86525e-06
-7.53186e-05
5.127e-06
-7.366e-05
6.00433e-06
-6.69329e-05
-1.16223e-06
2.66684e-05
-6.25831e-06
5.89072e-05
-8.41238e-06
6.5827e-05
-8.60416e-06
6.35685e-05
-7.79192e-06
5.89018e-05
-6.51273e-06
5.40285e-05
-5.06996e-06
4.94018e-05
-3.64039e-06
4.46897e-05
3.91053e-05
-2.35879e-06
2.83626e-07
-7.3962e-05
6.3369e-07
-7.30392e-05
9.9031e-07
-7.02391e-05
1.38495e-06
-6.83173e-05
1.78702e-06
-6.7404e-05
2.18896e-06
-6.74071e-05
2.59738e-06
-6.80812e-05
3.03233e-06
-6.92098e-05
3.53028e-06
-7.06796e-05
4.15385e-06
-7.24793e-05
5.15507e-06
-7.47389e-05
7.04888e-06
-7.72124e-05
6.85091e-06
-7.34621e-05
-1.29957e-06
-5.87825e-05
-1.25048e-05
3.78735e-05
-1.66398e-05
6.3042e-05
-1.68321e-05
6.60193e-05
-1.54071e-05
6.21434e-05
-1.33297e-05
5.68243e-05
-1.11072e-05
5.18059e-05
-8.95654e-06
4.72511e-05
-6.99076e-06
4.27239e-05
3.74202e-05
-5.30576e-06
6.2542e-06
-8.02162e-05
2.50146e-06
-6.92865e-05
1.54324e-06
-6.92809e-05
1.47262e-06
-6.82466e-05
1.77182e-06
-6.77032e-05
2.21241e-06
-6.78476e-05
2.7097e-06
-6.85785e-05
3.28388e-06
-6.9784e-05
4.01083e-06
-7.14066e-05
4.94186e-06
-7.34103e-05
6.13312e-06
-7.59302e-05
8.15497e-06
-7.92342e-05
1.26934e-05
-7.80005e-05
-2.22337e-05
-2.38554e-05
-3.17773e-05
4.74171e-05
-3.11529e-05
6.24174e-05
-2.73538e-05
6.22201e-05
-2.30747e-05
5.78643e-05
-1.91575e-05
5.2907e-05
-1.57134e-05
4.83617e-05
-1.2725e-05
4.42626e-05
-1.01661e-05
4.0165e-05
3.53119e-05
-8.05788e-06
1.74098e-05
-9.76258e-05
5.07489e-06
-5.69517e-05
1.88541e-06
-6.60913e-05
1.43889e-06
-6.78003e-05
1.94371e-06
-6.82079e-05
2.68185e-06
-6.85858e-05
3.41504e-06
-6.93118e-05
4.17482e-06
-7.05438e-05
5.14214e-06
-7.23739e-05
6.32978e-06
-7.4598e-05
5.45379e-06
-7.50543e-05
-3.12316e-06
-7.06574e-05
-3.53985e-05
-4.57253e-05
-6.36546e-05
4.40063e-06
-5.68686e-05
4.06312e-05
-4.64959e-05
5.20446e-05
-3.74495e-05
5.31735e-05
-3.02137e-05
5.06284e-05
-2.44769e-05
4.71702e-05
-1.98675e-05
4.37522e-05
-1.60996e-05
4.04947e-05
-1.29995e-05
3.70649e-05
3.2824e-05
-1.05116e-05
-1.60693e-05
-8.15564e-05
-6.12158e-06
-6.68995e-05
-6.74763e-06
-6.54643e-05
-8.97626e-06
-6.55721e-05
-1.18019e-05
-6.53822e-05
-1.4981e-05
-6.54068e-05
-1.86206e-05
-6.56719e-05
-2.30242e-05
-6.61405e-05
-2.87516e-05
-6.66459e-05
-3.68127e-05
-6.65371e-05
-4.79607e-05
-6.39062e-05
-6.49009e-05
-5.37169e-05
-8.06588e-05
-2.99674e-05
-8.02028e-05
3.94436e-06
-6.7692e-05
2.81203e-05
-5.46021e-05
3.89548e-05
-4.36778e-05
4.22492e-05
-3.50888e-05
4.20392e-05
-2.83831e-05
4.04644e-05
-2.30765e-05
3.84456e-05
-1.8801e-05
3.62192e-05
-1.53276e-05
3.35914e-05
3.00642e-05
-1.25678e-05
-8.96158e-06
-7.25947e-05
-9.0986e-06
-6.67631e-05
-1.06666e-05
-6.38956e-05
-1.39589e-05
-6.22798e-05
-1.79555e-05
-6.13854e-05
-2.24756e-05
-6.08869e-05
-2.76201e-05
-6.05276e-05
-3.36896e-05
-6.00712e-05
-4.11849e-05
-5.91506e-05
-5.06957e-05
-5.70265e-05
-6.23675e-05
-5.22344e-05
-7.44838e-05
-4.16006e-05
-8.17537e-05
-2.26976e-05
-7.78566e-05
4.72203e-08
-6.73208e-05
1.75844e-05
-5.58523e-05
2.74862e-05
-4.56902e-05
3.20871e-05
-3.73225e-05
3.36716e-05
-3.05779e-05
3.37199e-05
-2.51299e-05
3.29975e-05
-2.06876e-05
3.17769e-05
-1.70569e-05
2.99606e-05
2.71716e-05
-1.41643e-05
-5.82608e-06
-6.67681e-05
-8.89104e-06
-6.36985e-05
-1.22015e-05
-6.05852e-05
-1.60421e-05
-5.8439e-05
-2.03595e-05
-5.70679e-05
-2.51635e-05
-5.60826e-05
-3.05644e-05
-5.5127e-05
-3.67612e-05
-5.38742e-05
-4.39899e-05
-5.19221e-05
-5.23828e-05
-4.86335e-05
-6.16604e-05
-4.29568e-05
-6.98428e-05
-3.34185e-05
-7.33507e-05
-1.91898e-05
-7.00302e-05
-3.27328e-06
-6.22806e-05
9.83488e-06
-5.33243e-05
1.85298e-05
-4.48576e-05
2.36203e-05
-3.74889e-05
2.6303e-05
-3.1282e-05
2.75129e-05
-2.60991e-05
2.78147e-05
-2.17722e-05
2.745e-05
-1.81796e-05
2.63681e-05
2.42796e-05
-1.52875e-05
-5.09764e-06
-6.16702e-05
-8.9944e-06
-5.98018e-05
-1.27122e-05
-5.68672e-05
-1.66213e-05
-5.45307e-05
-2.08511e-05
-5.2838e-05
-2.54765e-05
-5.14571e-05
-3.05815e-05
-5.00219e-05
-3.62625e-05
-4.81934e-05
-4.25752e-05
-4.56096e-05
-4.9403e-05
-4.18056e-05
-5.62009e-05
-3.61589e-05
-6.16382e-05
-2.79814e-05
-6.35921e-05
-1.72359e-05
-6.12128e-05
-5.65249e-06
-5.57816e-05
4.40372e-06
-4.91236e-05
1.18718e-05
-4.24361e-05
1.69329e-05
-3.62923e-05
2.01592e-05
-3.08759e-05
2.20965e-05
-2.61852e-05
2.31241e-05
-2.2159e-05
2.34237e-05
-1.87484e-05
2.29575e-05
2.1494e-05
-1.59628e-05
-4.61574e-06
-5.70538e-05
-8.69881e-06
-5.57181e-05
-1.25126e-05
-5.30529e-05
-1.63358e-05
-5.07075e-05
-2.03401e-05
-4.88337e-05
-2.46152e-05
-4.71822e-05
-2.92156e-05
-4.54213e-05
-3.41642e-05
-4.32451e-05
-3.94118e-05
-4.03621e-05
-4.47558e-05
-3.64616e-05
-4.9708e-05
-3.12069e-05
-5.33567e-05
-2.43327e-05
-5.45839e-05
-1.60086e-05
-5.2991e-05
-7.24543e-06
-4.92522e-05
6.64892e-07
-4.44082e-05
7.02794e-06
-3.92662e-05
1.17909e-05
-3.42973e-05
1.51904e-05
-2.97212e-05
1.75204e-05
-2.5613e-05
1.90159e-05
-2.19853e-05
1.97961e-05
-1.88459e-05
1.9818e-05
1.88877e-05
-1.62396e-05
-4.24224e-06
-5.28124e-05
-8.20326e-06
-5.17569e-05
-1.19158e-05
-4.93404e-05
-1.55613e-05
-4.7062e-05
-1.92819e-05
-4.51133e-05
-2.3155e-05
-4.3309e-05
-2.72096e-05
-4.13667e-05
-3.14256e-05
-3.9029e-05
-3.57107e-05
-3.60769e-05
-3.9859e-05
-3.23136e-05
-4.34921e-05
-2.75738e-05
-4.60361e-05
-2.17886e-05
-4.68879e-05
-1.51567e-05
-4.58483e-05
-8.28505e-06
-4.32762e-05
-1.90718e-06
-3.97702e-05
3.52203e-06
-3.58579e-05
7.87871e-06
-3.19e-05
1.12325e-05
-2.81059e-05
1.37263e-05
-2.45834e-05
1.54934e-05
-2.13877e-05
1.66004e-05
-1.85631e-05
1.69934e-05
1.65028e-05
-1.61782e-05
-3.89231e-06
-4.89203e-05
-7.61195e-06
-4.80369e-05
-1.11178e-05
-4.58344e-05
-1.45269e-05
-4.36528e-05
-1.79382e-05
-4.17019e-05
-2.14081e-05
-3.9839e-05
-2.4946e-05
-3.78291e-05
-2.85118e-05
-3.54631e-05
-3.20064e-05
-3.25823e-05
-3.52523e-05
-2.90678e-05
-3.79772e-05
-2.48489e-05
-3.98256e-05
-1.99401e-05
-4.04661e-05
-1.45163e-05
-3.97968e-05
-8.95443e-06
-3.80129e-05
-3.69098e-06
-3.5462e-05
9.71267e-07
-3.24859e-05
4.90272e-06
-2.93508e-05
8.0974e-06
-2.62366e-05
1.06121e-05
-2.32567e-05
1.25136e-05
-2.04851e-05
1.38288e-05
-1.79859e-05
1.44941e-05
1.43575e-05
-1.58406e-05
-3.551e-06
-4.53692e-05
-6.98169e-06
-4.46064e-05
-1.02311e-05
-4.25849e-05
-1.33708e-05
-4.05131e-05
-1.64663e-05
-3.86062e-05
-1.95536e-05
-3.67519e-05
-2.26281e-05
-3.47546e-05
-2.56443e-05
-3.24468e-05
-2.85123e-05
-2.97146e-05
-3.10912e-05
-2.64889e-05
-3.3191e-05
-2.27489e-05
-3.45917e-05
-1.85395e-05
-3.51067e-05
-1.40013e-05
-3.46827e-05
-9.37831e-06
-3.343e-05
-4.94354e-06
-3.15544e-05
-9.04211e-07
-2.92787e-05
2.62708e-06
-2.67955e-05
5.61418e-06
-2.42513e-05
8.06786e-06
-2.17511e-05
1.00134e-05
-1.93732e-05
1.14508e-05
-1.7189e-05
1.231e-05
1.24526e-05
-1.52842e-05
-3.21313e-06
-4.21559e-05
-6.33934e-06
-4.148e-05
-9.31353e-06
-3.96106e-05
-1.21721e-05
-3.76546e-05
-1.49582e-05
-3.58202e-05
-1.76914e-05
-3.40187e-05
-2.03598e-05
-3.2086e-05
-2.29198e-05
-2.9887e-05
-2.52957e-05
-2.73388e-05
-2.73809e-05
-2.44036e-05
-2.90444e-05
-2.10854e-05
-3.0148e-05
-1.7436e-05
-3.05839e-05
-1.35654e-05
-3.03238e-05
-9.63825e-06
-2.94329e-05
-5.83429e-06
-2.80375e-05
-2.29958e-06
-2.62846e-05
8.74209e-07
-2.43126e-05
3.64217e-06
-2.22373e-05
5.99261e-06
-2.015e-05
7.92616e-06
-1.81249e-05
9.4257e-06
-1.62335e-05
1.04185e-05
1.07782e-05
-1.4559e-05
-2.88086e-06
-3.92753e-05
-5.70408e-06
-3.86568e-05
-8.39931e-06
-3.69154e-05
-1.09786e-05
-3.50751e-05
-1.34692e-05
-3.33298e-05
-1.58799e-05
-3.1608e-05
-1.81957e-05
-2.97701e-05
-2.03779e-05
-2.77049e-05
-2.23656e-05
-2.5351e-05
-2.40799e-05
-2.26892e-05
-2.54305e-05
-1.97349e-05
-2.63289e-05
-1.65377e-05
-2.6711e-05
-1.31832e-05
-2.65618e-05
-9.78729e-06
-2.59221e-05
-6.47399e-06
-2.48725e-05
-3.34911e-06
-2.35119e-05
-4.86413e-07
-2.19401e-05
2.07036e-06
-2.02472e-05
4.29974e-06
-1.85096e-05
6.18864e-06
-1.67941e-05
7.71014e-06
-1.51673e-05
8.79179e-06
9.31811e-06
-1.37072e-05
-2.56525e-06
-3.67099e-05
-5.09492e-06
-3.61272e-05
-7.5145e-06
-3.44959e-05
-9.82297e-06
-3.27668e-05
-1.20352e-05
-3.11176e-05
-1.41539e-05
-2.94893e-05
-1.61634e-05
-2.77607e-05
-1.80304e-05
-2.58378e-05
-1.97074e-05
-2.36738e-05
-2.11363e-05
-2.12602e-05
-2.22544e-05
-1.86169e-05
-2.3004e-05
-1.5788e-05
-2.33459e-05
-1.28411e-05
-2.32724e-05
-9.86074e-06
-2.28104e-05
-6.93609e-06
-2.20135e-05
-4.14598e-06
-2.095e-05
-1.54993e-06
-1.96925e-05
8.12955e-07
-1.83104e-05
2.9177e-06
-1.68666e-05
4.74481e-06
-1.54188e-05
6.26241e-06
-1.40273e-05
7.40039e-06
8.05344e-06
-1.27626e-05
-2.27468e-06
-3.44352e-05
-4.52348e-06
-3.38786e-05
-6.67528e-06
-3.23442e-05
-8.72423e-06
-3.0718e-05
-1.06766e-05
-2.91652e-05
-1.25311e-05
-2.76348e-05
-1.42727e-05
-2.60191e-05
-1.58735e-05
-2.42368e-05
-1.72968e-05
-2.22505e-05
-1.84996e-05
-2.00575e-05
-1.9438e-05
-1.76784e-05
-2.00739e-05
-1.51521e-05
-2.03827e-05
-1.25322e-05
-2.03606e-05
-9.88284e-06
-2.00263e-05
-7.27044e-06
-1.94169e-05
-4.75536e-06
-1.85808e-05
-2.38589e-06
-1.75714e-05
-1.96401e-07
-1.64419e-05
1.78825e-06
-1.52436e-05
3.54646e-06
-1.40255e-05
5.04443e-06
-1.28408e-05
6.21575e-06
6.96452e-06
-1.17518e-05
-2.0058e-06
-3.24296e-05
-3.98851e-06
-3.18961e-05
-5.88555e-06
-3.04475e-05
-7.68943e-06
-2.89142e-05
-9.40108e-06
-2.74536e-05
-1.10165e-05
-2.60194e-05
-1.25218e-05
-2.45137e-05
-1.38943e-05
-2.28641e-05
-1.51056e-05
-2.10393e-05
-1.61238e-05
-1.90393e-05
-1.69179e-05
-1.68842e-05
-1.74623e-05
-1.46075e-05
-1.77414e-05
-1.22531e-05
-1.77535e-05
-9.87076e-06
-1.75121e-05
-7.51183e-06
-1.70436e-05
-5.22374e-06
-1.63834e-05
-3.04607e-06
-1.55707e-05
-1.00902e-06
-1.46471e-05
8.64683e-07
-1.36536e-05
2.55298e-06
-1.26318e-05
4.02262e-06
-1.16274e-05
5.21152e-06
6.03237e-06
-1.06953e-05
-1.74951e-06
-3.06803e-05
-3.48246e-06
-3.01635e-05
-5.14234e-06
-2.87877e-05
-6.71867e-06
-2.73379e-05
-8.20871e-06
-2.59637e-05
-9.60714e-06
-2.46209e-05
-1.09021e-05
-2.32187e-05
-1.20756e-05
-2.16907e-05
-1.31056e-05
-2.00095e-05
-1.39685e-05
-1.81763e-05
-1.46426e-05
-1.621e-05
-1.51101e-05
-1.414e-05
-1.5361e-05
-1.20023e-05
-1.53946e-05
-9.83703e-06
-1.52212e-05
-7.68517e-06
-1.48599e-05
-5.58493e-06
-1.43367e-05
-3.56918e-06
-1.36815e-05
-1.66423e-06
-1.29259e-05
1.09177e-07
-1.21033e-05
1.73034e-06
-1.12485e-05
3.16783e-06
-1.0401e-05
4.36407e-06
5.23941e-06
-9.60814e-06
-1.50123e-06
-2.91792e-05
-3.00148e-06
-2.86636e-05
-4.44369e-06
-2.73457e-05
-5.81048e-06
-2.59713e-05
-7.09641e-06
-2.46778e-05
-8.29662e-06
-2.34206e-05
-9.40204e-06
-2.21134e-05
-1.03988e-05
-2.06941e-05
-1.12703e-05
-1.9138e-05
-1.19992e-05
-1.74472e-05
-1.257e-05
-1.56392e-05
-1.29702e-05
-1.37397e-05
-1.31932e-05
-1.17792e-05
-1.32391e-05
-9.79102e-06
-1.31154e-05
-7.80871e-06
-1.28363e-05
-5.86389e-06
-1.24211e-05
-3.98432e-06
-1.18924e-05
-2.19296e-06
-1.12746e-05
-5.08624e-07
-1.05945e-05
1.05021e-06
-9.88174e-06
2.45505e-06
-9.17051e-06
3.65274e-06
4.56998e-06
-8.50122e-06
-1.26399e-06
-2.79155e-05
-2.54946e-06
-2.73782e-05
-3.79198e-06
-2.61032e-05
-4.96456e-06
-2.47988e-05
-6.06048e-06
-2.35819e-05
-7.07712e-06
-2.2404e-05
-8.00877e-06
-2.11818e-05
-8.84559e-06
-1.98573e-05
-9.57541e-06
-1.8408e-05
-1.01857e-05
-1.68368e-05
-1.06649e-05
-1.51599e-05
-1.10043e-05
-1.34002e-05
-1.11993e-05
-1.15841e-05
-1.12502e-05
-9.73987e-06
-1.11628e-05
-7.89597e-06
-1.09475e-05
-6.0792e-06
-1.06183e-05
-4.31351e-06
-1.0192e-05
-2.6192e-06
-9.68755e-06
-1.01313e-06
-9.12625e-06
4.88838e-07
-8.5341e-06
1.86276e-06
-7.94122e-06
3.0597e-06
4.01053e-06
-7.38193e-06
-1.0443e-06
-2.68713e-05
-2.13498e-06
-2.62875e-05
-3.19229e-06
-2.50459e-05
-4.18099e-06
-2.381e-05
-5.09607e-06
-2.26668e-05
-5.93899e-06
-2.15612e-05
-6.70807e-06
-2.04128e-05
-7.39726e-06
-1.9168e-05
-7.99789e-06
-1.78073e-05
-8.50052e-06
-1.63342e-05
-8.89653e-06
-1.47638e-05
-9.1795e-06
-1.3117e-05
-9.34617e-06
-1.14172e-05
-9.39694e-06
-9.68896e-06
-9.33594e-06
-7.95692e-06
-9.17059e-06
-6.24453e-06
-8.91099e-06
-4.57311e-06
-8.56906e-06
-2.96113e-06
-8.15839e-06