/*--------------------------------*- C++ -*----------------------------------*\
| =========                 |                                                 |
| \\      /  F ield         | OpenFOAM: The Open Source CFD Toolbox           |
|  \\    /   O peration     | Version:  v2012                                 |
|   \\  /    A nd           | Website:  www.openfoam.com                      |
|    \\/     M anipulation  |                                                 |
\*---------------------------------------------------------------------------*/
FoamFile
{
    version     2.0;
    format      ascii;
    class       volVectorField;
    location    "0.05";
    object      U;
}
// * * * * * * * * * * * * * * * * * * * * * * * * * * * * * * * * * * * * * //

dimensions      [0 1 -1 0 0 0 0];


internalField   nonuniform List<vector> 
2268
(
(0.00979134 -0.00616755 0)
(0.0384698 -0.010912 0)
(0.0785487 -0.0129033 0)
(0.122343 -0.0131967 0)
(0.167242 -0.0132334 0)
(0.213306 -0.0136812 0)
(0.262153 -0.0147637 0)
(0.315971 -0.0167096 0)
(0.379792 -0.0198131 0)
(0.45084 -0.0259847 0)
(0.564675 -0.0363797 0)
(0.664766 -0.0407985 0)
(0.741992 -0.0447804 0)
(0.853716 -0.060395 0)
(1.00526 -0.0880401 0)
(1.16205 -0.13891 0)
(1.07984 -0.0978894 0)
(0.881377 -0.021051 0)
(0.660243 0.0423501 0)
(0.47067 0.0457572 0)
(0.31232 0.0413171 0)
(0.168926 0.0382686 0)
(0.0485824 0.0277995 0)
(0.0146628 -0.0163346 0)
(0.0455474 -0.0261915 0)
(0.0821548 -0.0307154 0)
(0.121523 -0.0320579 0)
(0.1624 -0.0326888 0)
(0.204922 -0.0340629 0)
(0.250294 -0.0368441 0)
(0.300229 -0.0416292 0)
(0.358399 -0.0491999 0)
(0.42366 -0.062687 0)
(0.515551 -0.0811511 0)
(0.59965 -0.0910425 0)
(0.678724 -0.0890083 0)
(0.806435 -0.0669699 0)
(0.958263 -0.0148924 0)
(1.01208 0.0503813 0)
(0.999827 0.0888312 0)
(0.833857 0.162699 0)
(0.629817 0.15918 0)
(0.47071 0.123544 0)
(0.328806 0.107997 0)
(0.193874 0.0992252 0)
(0.0657933 0.0786234 0)
(0.018586 -0.0309824 0)
(0.0503552 -0.0415457 0)
(0.0834104 -0.0467837 0)
(0.117957 -0.0490178 0)
(0.154203 -0.0505235 0)
(0.192511 -0.0530156 0)
(0.233759 -0.0574667 0)
(0.279168 -0.0647385 0)
(0.331326 -0.0759675 0)
(0.389201 -0.0940231 0)
(0.464642 -0.117487 0)
(0.53395 -0.135013 0)
(0.600245 -0.137749 0)
(0.716491 -0.102553 0)
(0.810465 -0.0510041 0)
(0.796684 -0.0466929 0)
(0.702965 0.0914715 0)
(0.581005 0.215175 0)
(0.492855 0.217382 0)
(0.403774 0.181277 0)
(0.302412 0.164417 0)
(0.195193 0.156157 0)
(0.0757339 0.138912 0)
(0.0204097 -0.0476772 0)
(0.0526391 -0.0570162 0)
(0.0831208 -0.0617398 0)
(0.113913 -0.0644928 0)
(0.146296 -0.06691 0)
(0.180899 -0.0705971 0)
(0.21842 -0.076662 0)
(0.259688 -0.0861328 0)
(0.306425 -0.10031 0)
(0.357376 -0.121707 0)
(0.420151 -0.148512 0)
(0.475713 -0.171597 0)
(0.527274 -0.180163 0)
(0.619707 -0.138734 0)
(0.690976 -0.0566424 0)
(0.698877 -0.0179515 0)
(0.549367 0.127936 0)
(0.456066 0.24409 0)
(0.413488 0.246717 0)
(0.356757 0.219259 0)
(0.281769 0.207954 0)
(0.196223 0.2066 0)
(0.0835201 0.204458 0)
(0.0205082 -0.0647203 0)
(0.0527764 -0.0721851 0)
(0.0817366 -0.075686 0)
(0.11008 -0.0786487 0)
(0.139685 -0.0819204 0)
(0.171397 -0.0867931 0)
(0.205843 -0.0943658 0)
(0.243586 -0.105729 0)
(0.28569 -0.122196 0)
(0.330708 -0.145836 0)
(0.383642 -0.174458 0)
(0.427874 -0.200736 0)
(0.467052 -0.21311 0)
(0.537812 -0.167073 0)
(0.610495 -0.0733498 0)
(0.640258 0.0262156 0)
(0.476913 0.181891 0)
(0.398738 0.267312 0)
(0.369314 0.266044 0)
(0.325422 0.24654 0)
(0.26762 0.241985 0)
(0.198717 0.251262 0)
(0.0901842 0.272092 0)
(0.0196785 -0.0814323 0)
(0.0515908 -0.0869348 0)
(0.0799231 -0.0888955 0)
(0.107032 -0.0918023 0)
(0.134968 -0.0957819 0)
(0.164699 -0.101733 0)
(0.196846 -0.110647 0)
(0.231816 -0.123584 0)
(0.270217 -0.141755 0)
(0.31055 -0.166748 0)
(0.35611 -0.19594 0)
(0.391953 -0.223448 0)
(0.421933 -0.23811 0)
(0.477389 -0.194211 0)
(0.55345 -0.0944902 0)
(0.590315 0.0701023 0)
(0.433801 0.226029 0)
(0.370959 0.287826 0)
(0.342551 0.282358 0)
(0.305442 0.267816 0)
(0.259761 0.269104 0)
(0.205416 0.291177 0)
(0.0984656 0.343156 0)
(0.0186537 -0.0975398 0)
(0.0501241 -0.101428 0)
(0.0785608 -0.101833 0)
(0.10547 -0.104459 0)
(0.132759 -0.108939 0)
(0.16143 -0.115795 0)
(0.192121 -0.125854 0)
(0.225173 -0.140073 0)
(0.260903 -0.159494 0)
(0.297929 -0.185219 0)
(0.338388 -0.214118 0)
(0.368468 -0.24149 0)
(0.392272 -0.257757 0)
(0.436209 -0.220416 0)
(0.507748 -0.114935 0)
(0.538038 0.105537 0)
(0.405142 0.262837 0)
(0.35526 0.306469 0)
(0.327146 0.296772 0)
(0.295358 0.284563 0)
(0.259304 0.29013 0)
(0.220552 0.326612 0)
(0.111395 0.421323 0)
(0.0180146 -0.113327 0)
(0.0492743 -0.116118 0)
(0.0783345 -0.115175 0)
(0.105812 -0.117375 0)
(0.13331 -0.122144 0)
(0.161769 -0.129718 0)
(0.191836 -0.140737 0)
(0.223833 -0.156015 0)
(0.257909 -0.176393 0)
(0.292965 -0.202505 0)
(0.3303 -0.230786 0)
(0.35628 -0.257328 0)
(0.376695 -0.273958 0)
(0.411881 -0.242857 0)
(0.470239 -0.133188 0)
(0.489898 0.132717 0)
(0.386836 0.2912 0)
(0.347949 0.323278 0)
(0.321988 0.31021 0)
(0.295338 0.298162 0)
(0.268711 0.305253 0)
(0.247645 0.352025 0)
(0.142229 0.518838 0)
(0.0123015 -0.00646084 0)
(0.0409994 -0.00815635 0)
(0.0674612 -0.00598851 0)
(0.0847514 -0.0033231 0)
(0.0931892 -0.00128502 0)
(0.0951549 7.6607e-05 0)
(0.0928945 0.000922078 0)
(0.0880853 0.00143013 0)
(0.0817472 0.00172829 0)
(0.0745246 0.00189743 0)
(0.0668057 0.00199154 0)
(0.0588296 0.00203976 0)
(0.0507147 0.00206854 0)
(0.0424975 0.00209906 0)
(0.0341363 0.00215451 0)
(0.0255452 0.00224264 0)
(0.0167576 0.00229864 0)
(0.00837555 0.00202998 0)
(0.00218044 0.00125706 0)
(0.0160876 -0.0172103 0)
(0.0459413 -0.0195106 0)
(0.0694674 -0.0142511 0)
(0.0838215 -0.00797686 0)
(0.090491 -0.00304985 0)
(0.0915883 0.000304348 0)
(0.0890846 0.0024192 0)
(0.0842879 0.00370013 0)
(0.0781308 0.00445425 0)
(0.0712003 0.00487849 0)
(0.0638477 0.00510776 0)
(0.0562922 0.00522481 0)
(0.0486372 0.00529184 0)
(0.040914 0.00536275 0)
(0.0330995 0.00548054 0)
(0.0251546 0.00564153 0)
(0.0171382 0.00566255 0)
(0.00949213 0.00498137 0)
(0.00299122 0.00320642 0)
(0.0198289 -0.0307312 0)
(0.0506815 -0.0303847 0)
(0.0712283 -0.0211596 0)
(0.0822156 -0.0115992 0)
(0.0866609 -0.00422568 0)
(0.0865756 0.000814218 0)
(0.0835516 0.00401514 0)
(0.0786787 0.00596203 0)
(0.0727263 0.00710302 0)
(0.066176 0.0077375 0)
(0.0593117 0.00807114 0)
(0.0523112 0.00823604 0)
(0.0452603 0.00832341 0)
(0.0381892 0.00841164 0)
(0.0311001 0.00855003 0)
(0.0240017 0.0087178 0)
(0.0169569 0.00867468 0)
(0.0101779 0.00784338 0)
(0.00366248 0.00587835 0)
(0.023257 -0.0467476 0)
(0.0559569 -0.0414685 0)
(0.0742824 -0.0270604 0)
(0.0820977 -0.0142039 0)
(0.0842352 -0.00473387 0)
(0.0828274 0.0016927 0)
(0.0791682 0.00577992 0)
(0.0741075 0.0082599 0)
(0.0682441 0.00970425 0)
(0.0619544 0.0104984 0)
(0.0554586 0.0109039 0)
(0.0488946 0.0110931 0)
(0.0423315 0.011182 0)
(0.0357998 0.0112627 0)
(0.0293208 0.0113851 0)
(0.0229277 0.0115174 0)
(0.0166575 0.0114267 0)
(0.0105202 0.0106418 0)
(0.00403667 0.00889147 0)
(0.0268885 -0.0633084 0)
(0.0630026 -0.053032 0)
(0.0794061 -0.0319671 0)
(0.0840447 -0.0156999 0)
(0.083756 -0.00447746 0)
(0.0808639 0.00300449 0)
(0.0764086 0.00774965 0)
(0.0710032 0.0106183 0)
(0.0650762 0.0122745 0)
(0.0588975 0.0131713 0)
(0.0526242 0.0136135 0)
(0.0463536 0.0138032 0)
(0.0401363 0.0138736 0)
(0.0339987 0.0139233 0)
(0.0279675 0.0140012 0)
(0.0220747 0.0140752 0)
(0.016319 0.0139601 0)
(0.0105721 0.0133454 0)
(0.00412986 0.0119679 0)
(0.0335753 -0.0837127 0)
(0.0741138 -0.0658917 0)
(0.0876691 -0.0357671 0)
(0.0886662 -0.0159574 0)
(0.0856525 -0.00336098 0)
(0.0810467 0.00482417 0)
(0.0755956 0.00998089 0)
(0.0696598 0.0130808 0)
(0.0634927 0.0148508 0)
(0.0572549 0.0157894 0)
(0.0510382 0.0162302 0)
(0.044899 0.016394 0)
(0.0388659 0.0164256 0)
(0.0329543 0.0164258 0)
(0.0271816 0.0164432 0)
(0.0215598 0.016455 0)
(0.01605 0.0163432 0)
(0.0104544 0.0159682 0)
(0.00405495 0.0150246 0)
(0.0595529 -0.124047 0)
(0.0930489 -0.0792065 0)
(0.100347 -0.0375029 0)
(0.0966339 -0.0146322 0)
(0.0903602 -0.00120764 0)
(0.0837165 0.00727914 0)
(0.0770215 0.0125823 0)
(0.0703372 0.0157473 0)
(0.0637283 0.0175277 0)
(0.0572402 0.0184427 0)
(0.0508961 0.0188394 0)
(0.044709 0.0189482 0)
(0.038682 0.0189197 0)
(0.0328125 0.018856 0)
(0.0270964 0.0188075 0)
(0.0215145 0.0187682 0)
(0.0159974 0.0186899 0)
(0.0103333 0.0185723 0)
(0.00393527 0.0180321 0)
(0.145202 -0.166541 0)
(0.126283 -0.0839186 0)
(0.118212 -0.0345853 0)
(0.10812 -0.0110686 0)
(0.0979864 0.00226108 0)
(0.0889787 0.0105672 0)
(0.0807952 0.0157298 0)
(0.0731406 0.018786 0)
(0.0658793 0.0204691 0)
(0.0589392 0.0212916 0)
(0.0522733 0.0215989 0)
(0.0458496 0.0216218 0)
(0.0396422 0.0215119 0)
(0.0336255 0.0213719 0)
(0.0277674 0.0212574 0)
(0.0220158 0.0211824 0)
(0.0162838 0.0211553 0)
(0.0103789 0.021249 0)
(0.00388624 0.021004 0)
(0.0176419 -0.137058 0)
(0.0488939 -0.139794 0)
(0.0789908 -0.137504 0)
(0.107642 -0.138989 0)
(0.135939 -0.143892 0)
(0.164636 -0.152276 0)
(0.194317 -0.164511 0)
(0.225269 -0.181138 0)
(0.257465 -0.20266 0)
(0.290389 -0.229035 0)
(0.32398 -0.256749 0)
(0.344556 -0.28141 0)
(0.362134 -0.294862 0)
(0.389671 -0.264136 0)
(0.427945 -0.148486 0)
(0.421789 0.158476 0)
(0.363926 0.320484 0)
(0.341582 0.347577 0)
(0.323266 0.331926 0)
(0.30611 0.31731 0)
(0.297445 0.320154 0)
(0.318132 0.35649 0)
(0.409856 0.475212 0)
(0.0170436 -0.168531 0)
(0.0471826 -0.171133 0)
(0.0765483 -0.167107 0)
(0.104631 -0.167242 0)
(0.132137 -0.171607 0)
(0.159544 -0.180231 0)
(0.187238 -0.193162 0)
(0.215356 -0.210511 0)
(0.243757 -0.232331 0)
(0.272112 -0.258034 0)
(0.299654 -0.284582 0)
(0.313139 -0.305471 0)
(0.327831 -0.31113 0)
(0.34723 -0.273186 0)
(0.36998 -0.127298 0)
(0.339633 0.183488 0)
(0.315102 0.332854 0)
(0.312021 0.35891 0)
(0.306195 0.341992 0)
(0.299544 0.321811 0)
(0.300037 0.310301 0)
(0.318555 0.306637 0)
(0.384129 0.28463 0)
(0.0159784 -0.198606 0)
(0.0441146 -0.201002 0)
(0.0715234 -0.195573 0)
(0.0977854 -0.194521 0)
(0.123401 -0.198204 0)
(0.148621 -0.206655 0)
(0.17362 -0.219668 0)
(0.198383 -0.236996 0)
(0.222691 -0.25832 0)
(0.246285 -0.282716 0)
(0.268174 -0.307183 0)
(0.276158 -0.324465 0)
(0.288905 -0.324926 0)
(0.30413 -0.284046 0)
(0.325848 -0.100276 0)
(0.283258 0.195693 0)
(0.270439 0.332748 0)
(0.276453 0.359379 0)
(0.277698 0.34431 0)
(0.276342 0.32151 0)
(0.27788 0.300398 0)
(0.287733 0.277558 0)
(0.314626 0.237052 0)
(0.0146729 -0.22651 0)
(0.0404077 -0.228462 0)
(0.065395 -0.221815 0)
(0.0893534 -0.219689 0)
(0.112654 -0.222604 0)
(0.135385 -0.230567 0)
(0.157563 -0.243173 0)
(0.179066 -0.259899 0)
(0.199644 -0.280143 0)
(0.219121 -0.302778 0)
(0.236524 -0.324841 0)
(0.240669 -0.339155 0)
(0.25245 -0.33645 0)
(0.265235 -0.295731 0)
(0.287483 -0.067704 0)
(0.243824 0.205001 0)
(0.235592 0.328722 0)
(0.243581 0.355473 0)
(0.247413 0.343206 0)
(0.248433 0.320626 0)
(0.249959 0.296394 0)
(0.254856 0.268942 0)
(0.265407 0.229325 0)
(0.0133215 -0.251982 0)
(0.0365773 -0.253275 0)
(0.0590604 -0.245517 0)
(0.0806077 -0.242379 0)
(0.101501 -0.244472 0)
(0.121728 -0.251749 0)
(0.141211 -0.263639 0)
(0.159765 -0.279409 0)
(0.177151 -0.29827 0)
(0.193278 -0.318986 0)
(0.20725 -0.338724 0)
(0.208779 -0.350766 0)
(0.219905 -0.346065 0)
(0.230844 -0.307189 0)
(0.252134 -0.03566 0)
(0.21335 0.213222 0)
(0.207304 0.324782 0)
(0.214607 0.350565 0)
(0.218992 0.340439 0)
(0.22105 0.31906 0)
(0.22251 0.294402 0)
(0.224905 0.265884 0)
(0.229093 0.227149 0)
(0.0119889 -0.275004 0)
(0.0328257 -0.275499 0)
(0.052881 -0.266725 0)
(0.0720799 -0.262633 0)
(0.0906357 -0.263891 0)
(0.108482 -0.27038 0)
(0.125489 -0.281391 0)
(0.141453 -0.296036 0)
(0.156157 -0.313403 0)
(0.169587 -0.332225 0)
(0.180923 -0.349849 0)
(0.180697 -0.360102 0)
(0.191169 -0.353988 0)
(0.20055 -0.317028 0)
(0.219164 -0.015341 0)
(0.187244 0.219452 0)
(0.182798 0.321486 0)
(0.188863 0.345872 0)
(0.193025 0.337143 0)
(0.195449 0.317087 0)
(0.196875 0.292995 0)
(0.198185 0.264757 0)
(0.200064 0.227344 0)
(0.0107027 -0.295634 0)
(0.0292295 -0.295255 0)
(0.0469897 -0.285564 0)
(0.0639713 -0.280579 0)
(0.0803313 -0.281016 0)
(0.0959741 -0.286682 0)
(0.11075 -0.296749 0)
(0.124457 -0.310219 0)
(0.136911 -0.326102 0)
(0.148154 -0.343142 0)
(0.157434 -0.358882 0)
(0.15607 -0.36767 0)
(0.165826 -0.360402 0)
(0.173738 -0.32511 0)
(0.189193 0.001676 0)
(0.163342 0.224407 0)
(0.1604 0.318911 0)
(0.16546 0.341765 0)
(0.169175 0.333908 0)
(0.171615 0.315043 0)
(0.173006 0.291863 0)
(0.173893 0.26444 0)
(0.174919 0.228385 0)
(0.00947918 -0.313972 0)
(0.0258253 -0.312689 0)
(0.0414404 -0.302183 0)
(0.0563569 -0.296372 0)
(0.0706841 -0.296021 0)
(0.0843129 -0.300871 0)
(0.0970906 -0.309996 0)
(0.10883 -0.322314 0)
(0.119382 -0.336794 0)
(0.128829 -0.352208 0)
(0.136482 -0.366288 0)
(0.134432 -0.373844 0)
(0.143423 -0.365579 0)
(0.150154 -0.331486 0)
(0.16255 0.0147621 0)
(0.14155 0.227974 0)
(0.139669 0.316728 0)
(0.143842 0.338245 0)
(0.147004 0.330953 0)
(0.149264 0.313083 0)
(0.150581 0.290854 0)
(0.151314 0.264354 0)
(0.152042 0.229504 0)
(0.00832624 -0.330142 0)
(0.0226302 -0.327959 0)
(0.0362536 -0.316739 0)
(0.0492589 -0.310175 0)
(0.061716 -0.309087 0)
(0.0735109 -0.313157 0)
(0.0844982 -0.32138 0)
(0.0945127 -0.332616 0)
(0.103438 -0.34581 0)
(0.111387 -0.359776 0)
(0.117738 -0.372413 0)
(0.115345 -0.378926 0)
(0.123548 -0.369783 0)
(0.129331 -0.336416 0)
(0.138955 0.0250182 0)
(0.12172 0.230627 0)
(0.120342 0.314973 0)
(0.123589 0.335332 0)
(0.126132 0.328376 0)
(0.128105 0.311281 0)
(0.129322 0.289888 0)
(0.130029 0.26424 0)
(0.130711 0.230412 0)
(0.00724777 -0.344274 0)
(0.0196524 -0.341225 0)
(0.0314345 -0.329389 0)
(0.0426756 -0.322147 0)
(0.0534138 -0.320381 0)
(0.0635367 -0.323722 0)
(0.0729111 -0.331106 0)
(0.0813966 -0.341352 0)
(0.088909 -0.353399 0)
(0.0955894 -0.366107 0)
(0.100892 -0.377516 0)
(0.0984265 -0.383156 0)
(0.105844 -0.373218 0)
(0.110888 -0.34007 0)
(0.117948 0.0330355 0)
(0.103492 0.232977 0)
(0.102083 0.313816 0)
(0.104342 0.333101 0)
(0.106224 0.326256 0)
(0.107862 0.309684 0)
(0.10899 0.288931 0)
(0.109767 0.263974 0)
(0.110552 0.230974 0)
(0.00624806 -0.356499 0)
(0.0168987 -0.352636 0)
(0.0269837 -0.340276 0)
(0.0365952 -0.332429 0)
(0.0457496 -0.330045 0)
(0.0543397 -0.332718 0)
(0.0622476 -0.339336 0)
(0.0693578 -0.348695 0)
(0.0756174 -0.359745 0)
(0.0811983 -0.371394 0)
(0.0856528 -0.381803 0)
(0.0833297 -0.38674 0)
(0.0899873 -0.37606 0)
(0.0944835 -0.342614 0)
(0.0991779 0.039936 0)
(0.0864708 0.235589 0)
(0.084573 0.313501 0)
(0.0857617 0.331678 0)
(0.0869455 0.32468 0)
(0.0882444 0.308339 0)
(0.0893324 0.28797 0)
(0.0902752 0.263488 0)
(0.091298 0.231109 0)
(0.00533216 -0.366997 0)
(0.0143791 -0.36237 0)
(0.0229031 -0.349547 0)
(0.031004 -0.341154 0)
(0.0386898 -0.338209 0)
(0.0458635 -0.340275 0)
(0.0524219 -0.346205 0)
(0.0582724 -0.354785 0)
(0.0633906 -0.364988 0)
(0.0679841 -0.375789 0)
(0.0717396 -0.385455 0)
(0.0697313 -0.389893 0)
(0.0756748 -0.378509 0)
(0.0798324 -0.344186 0)
(0.0824779 0.0465348 0)
(0.0703718 0.238933 0)
(0.0675181 0.314247 0)
(0.0674907 0.331153 0)
(0.0679341 0.323669 0)
(0.0689245 0.307213 0)
(0.0700652 0.286932 0)
(0.0712979 0.262685 0)
(0.072699 0.230733 0)
(0.00452228 -0.376005 0)
(0.0121273 -0.370596 0)
(0.0192123 -0.357319 0)
(0.0258957 -0.348421 0)
(0.0322026 -0.344968 0)
(0.0380541 -0.346491 0)
(0.0433581 -0.351808 0)
(0.0480362 -0.359709 0)
(0.0520838 -0.369214 0)
(0.0557461 -0.379391 0)
(0.0588999 -0.38862 0)
(0.0573471 -0.392845 0)
(0.0626617 -0.380828 0)
(0.0667558 -0.344987 0)
(0.0678832 0.0535085 0)
(0.055031 0.243466 0)
(0.050585 0.316285 0)
(0.0490952 0.331568 0)
(0.0487643 0.323141 0)
(0.0495342 0.306155 0)
(0.0508895 0.285635 0)
(0.0525947 0.261386 0)
(0.05454 0.229708 0)
(0.00394017 -0.383209 0)
(0.0102659 -0.377145 0)
(0.0159589 -0.3635 0)
(0.0212722 -0.354197 0)
(0.0262629 -0.350316 0)
(0.0308733 -0.35137 0)
(0.0350167 -0.356151 0)
(0.0386083 -0.363457 0)
(0.0416399 -0.372386 0)
(0.0443837 -0.382154 0)
(0.0469557 -0.39131 0)
(0.0459592 -0.395812 0)
(0.0507861 -0.383369 0)
(0.0554939 -0.345353 0)
(0.0562666 0.0616699 0)
(0.040441 0.250087 0)
(0.0332626 0.320176 0)
(0.0299468 0.333125 0)
(0.0288841 0.323035 0)
(0.0296477 0.304975 0)
(0.0314949 0.283846 0)
(0.0339463 0.259373 0)
(0.0366691 0.227863 0)
(0.0036043 -0.38846 0)
(0.00880272 -0.382107 0)
(0.0130465 -0.368255 0)
(0.017038 -0.358682 0)
(0.0208188 -0.354497 0)
(0.0243136 -0.355178 0)
(0.0274384 -0.359501 0)
(0.0300888 -0.366281 0)
(0.0322178 -0.374705 0)
(0.0340684 -0.384191 0)
(0.0359714 -0.393599 0)
(0.0354922 -0.399041 0)
(0.0397653 -0.386929 0)
(0.0465131 -0.345704 0)
(0.0499798 0.0730416 0)
(0.0262585 0.260647 0)
(0.014363 0.326821 0)
(0.00893177 0.336084 0)
(0.00744577 0.323243 0)
(0.00871004 0.303405 0)
(0.01154 0.281264 0)
(0.0151485 0.256373 0)
(0.0189673 0.224986 0)
(0.00229651 -0.397718 0)
(0.00653752 -0.388548 0)
(0.00974122 -0.373354 0)
(0.0128238 -0.363092 0)
(0.0157305 -0.358507 0)
(0.0184181 -0.358847 0)
(0.0208168 -0.362787 0)
(0.0228376 -0.369114 0)
(0.0243969 -0.377082 0)
(0.0256325 -0.386294 0)
(0.0269689 -0.396 0)
(0.0269586 -0.402818 0)
(0.0298836 -0.393454 0)
(0.0373809 -0.349082 0)
(0.0451952 0.0913608 0)
(0.00919581 0.27788 0)
(-0.00905227 0.337022 0)
(-0.0158487 0.340118 0)
(-0.0167044 0.323089 0)
(-0.0139237 0.300758 0)
(-0.00930687 0.27732 0)
(-0.00394933 0.251965 0)
(0.00137823 0.220792 0)
(-0.00100254 -0.408749 0)
(0.00220366 -0.395183 0)
(0.00555435 -0.377745 0)
(0.00861624 -0.366507 0)
(0.0112035 -0.361388 0)
(0.0135271 -0.361375 0)
(0.0156324 -0.364984 0)
(0.0175222 -0.370951 0)
(0.0191722 -0.378551 0)
(0.020698 -0.387511 0)
(0.022689 -0.397387 0)
(0.0244461 -0.405175 0)
(0.0276057 -0.402363 0)
(0.0292149 -0.361012 0)
(0.0185449 0.12085 0)
(-0.0214305 0.303044 0)
(-0.042338 0.349931 0)
(-0.047353 0.343471 0)
(-0.0448613 0.320993 0)
(-0.0387395 0.295813 0)
(-0.031154 0.271133 0)
(-0.0233041 0.245533 0)
(-0.0160117 0.214884 0)
(0.00311136 -0.371344 0)
(0.00169983 -0.375963 0)
(0.00423527 -0.366528 0)
(0.00631357 -0.358597 0)
(0.00851535 -0.354639 0)
(0.0106725 -0.354895 0)
(0.0128283 -0.358397 0)
(0.0150277 -0.364096 0)
(0.0174008 -0.371359 0)
(0.0202704 -0.380002 0)
(0.0248468 -0.389788 0)
(0.030614 -0.398001 0)
(0.0403867 -0.394452 0)
(0.0432378 -0.362972 0)
(-0.0584903 0.170019 0)
(-0.0834801 0.331488 0)
(-0.0914639 0.35885 0)
(-0.08807 0.341695 0)
(-0.0775836 0.314037 0)
(-0.0656382 0.286807 0)
(-0.0536826 0.261666 0)
(-0.0425733 0.236486 0)
(-0.0328998 0.20693 0)
(0.0553696 -0.327652 0)
(0.0148916 -0.348801 0)
(0.00929368 -0.351745 0)
(0.00740586 -0.349122 0)
(0.00845981 -0.347318 0)
(0.0106433 -0.348581 0)
(0.0131677 -0.352674 0)
(0.015947 -0.358874 0)
(0.0192547 -0.366723 0)
(0.0237281 -0.376212 0)
(0.0304521 -0.388373 0)
(0.0358392 -0.40139 0)
(0.0422433 -0.370797 0)
(0.0478929 -0.281757 0)
(-0.205541 0.230264 0)
(-0.175469 0.345982 0)
(-0.158249 0.35172 0)
(-0.135188 0.327462 0)
(-0.112979 0.298363 0)
(-0.0930954 0.271731 0)
(-0.0758043 0.247883 0)
(-0.0609926 0.224302 0)
(-0.0487543 0.196692 0)
(0.218226 -0.486171 0)
(0.0263808 -0.387474 0)
(0.0141811 -0.381788 0)
(0.00702725 -0.373297 0)
(0.00852393 -0.368809 0)
(0.0124268 -0.369064 0)
(0.0164216 -0.372898 0)
(0.020278 -0.379419 0)
(0.0245447 -0.388202 0)
(0.030357 -0.398936 0)
(0.0375558 -0.41286 0)
(0.0180922 -0.431263 0)
(-0.0457896 -0.403885 0)
(-0.329343 0.0148265 0)
(-0.345205 0.258137 0)
(-0.277549 0.318234 0)
(-0.223524 0.31648 0)
(-0.179972 0.295708 0)
(-0.145428 0.271859 0)
(-0.117938 0.249716 0)
(-0.0956493 0.229472 0)
(-0.0774386 0.208912 0)
(-0.0628836 0.184207 0)
(-0.0785403 -0.617021 0)
(-0.0535273 -0.322004 0)
(-0.0314143 -0.372249 0)
(-0.0408768 -0.384172 0)
(-0.0550459 -0.387521 0)
(-0.0711923 -0.389586 0)
(-0.0893304 -0.393097 0)
(-0.110539 -0.399544 0)
(-0.136971 -0.409622 0)
(-0.172432 -0.420812 0)
(-0.222996 -0.414072 0)
(-0.303386 -0.360153 0)
(-0.394362 -0.176853 0)
(-0.451276 0.0437861 0)
(-0.403629 0.19252 0)
(-0.326755 0.247835 0)
(-0.261172 0.258629 0)
(-0.209059 0.250883 0)
(-0.168514 0.237126 0)
(-0.136724 0.222306 0)
(-0.111298 0.207385 0)
(-0.0908005 0.19094 0)
(-0.0746226 0.169899 0)
(-0.0287619 -0.391022 0)
(-0.0538433 -0.354824 0)
(-0.0499917 -0.349338 0)
(-0.065132 -0.344992 0)
(-0.0847805 -0.342164 0)
(-0.107659 -0.340952 0)
(-0.133455 -0.340686 0)
(-0.163187 -0.340566 0)
(-0.198922 -0.33897 0)
(-0.243798 -0.331984 0)
(-0.301594 -0.310918 0)
(-0.371072 -0.251575 0)
(-0.428431 -0.133817 0)
(-0.439107 0.0112104 0)
(-0.39401 0.120312 0)
(-0.329894 0.176579 0)
(-0.270462 0.19894 0)
(-0.220697 0.20346 0)
(-0.180497 0.199809 0)
(-0.148142 0.192652 0)
(-0.121845 0.183462 0)
(-0.100476 0.171514 0)
(-0.0835721 0.154482 0)
(-0.0181876 -0.379638 0)
(-0.0413828 -0.353291 0)
(-0.0562699 -0.335771 0)
(-0.0752288 -0.324876 0)
(-0.0969343 -0.318522 0)
(-0.121381 -0.314454 0)
(-0.148661 -0.310804 0)
(-0.179581 -0.305909 0)
(-0.215389 -0.297581 0)
(-0.257258 -0.28195 0)
(-0.306009 -0.251961 0)
(-0.356624 -0.198281 0)
(-0.391414 -0.111434 0)
(-0.391914 -0.0106797 0)
(-0.358394 0.070331 0)
(-0.310363 0.120882 0)
(-0.262307 0.147985 0)
(-0.21953 0.160337 0)
(-0.183213 0.164322 0)
(-0.152845 0.163561 0)
(-0.127463 0.159506 0)
(-0.106459 0.151814 0)
(-0.0896677 0.138728 0)
(-0.0156633 -0.346157 0)
(-0.0391823 -0.333632 0)
(-0.0584469 -0.317219 0)
(-0.0783606 -0.304822 0)
(-0.0999858 -0.296373 0)
(-0.123699 -0.289847 0)
(-0.149754 -0.283211 0)
(-0.178628 -0.274592 0)
(-0.21084 -0.261878 0)
(-0.246426 -0.242131 0)
(-0.284141 -0.211103 0)
(-0.319265 -0.163217 0)
(-0.341049 -0.0975799 0)
(-0.339662 -0.025528 0)
(-0.316521 0.0358137 0)
(-0.282086 0.0793946 0)
(-0.245236 0.107276 0)
(-0.210416 0.123805 0)
(-0.179334 0.132788 0)
(-0.152261 0.136732 0)
(-0.128901 0.136797 0)
(-0.109133 0.132778 0)
(-0.0931007 0.123301 0)
(-0.0139444 -0.320122 0)
(-0.0368458 -0.311569 0)
(-0.0573078 -0.296476 0)
(-0.077227 -0.28372 0)
(-0.0980287 -0.273945 0)
(-0.120197 -0.265594 0)
(-0.144011 -0.256771 0)
(-0.169657 -0.245712 0)
(-0.197159 -0.230641 0)
(-0.225976 -0.209517 0)
(-0.254468 -0.179929 0)
(-0.278902 -0.139694 0)
(-0.293026 -0.0893312 0)
(-0.291853 -0.0357536 0)
(-0.276348 0.0118845 0)
(-0.252086 0.0490166 0)
(-0.224516 0.0757452 0)
(-0.196999 0.0939859 0)
(-0.171239 0.105853 0)
(-0.147885 0.112946 0)
(-0.127079 0.116072 0)
(-0.109056 0.115028 0)
(-0.094208 0.108685 0)
(-0.0126663 -0.296127 0)
(-0.0343521 -0.289705 0)
(-0.0544094 -0.276024 0)
(-0.0736693 -0.263502 0)
(-0.0932475 -0.25307 0)
(-0.113598 -0.243593 0)
(-0.134911 -0.233427 0)
(-0.157181 -0.221058 0)
(-0.180164 -0.205121 0)
(-0.203145 -0.184288 0)
(-0.224624 -0.15732 0)
(-0.241985 -0.123489 0)
(-0.251645 -0.0838615 0)
(-0.251024 -0.0425371 0)
(-0.24068 -0.00458094 0)
(-0.223619 0.0270335 0)
(-0.20316 0.0517153 0)
(-0.181709 0.0701401 0)
(-0.160733 0.0833844 0)
(-0.141 0.0923931 0)
(-0.122876 0.0976528 0)
(-0.106818 0.0989062 0)
(-0.0933825 0.0951831 0)
(-0.0115919 -0.274198 0)
(-0.0317096 -0.268925 0)
(-0.0506609 -0.256469 0)
(-0.0688173 -0.244399 0)
(-0.0869615 -0.23379 0)
(-0.10543 -0.223786 0)
(-0.124301 -0.213002 0)
(-0.143462 -0.200191 0)
(-0.162571 -0.18435 0)
(-0.180932 -0.164663 0)
(-0.197353 -0.140558 0)
(-0.21008 -0.111973 0)
(-0.21705 -0.0799309 0)
(-0.216903 -0.0469348 0)
(-0.209956 -0.0159323 0)
(-0.197873 0.011114 0)
(-0.182654 0.0334727 0)
(-0.165989 0.0512383 0)
(-0.149054 0.0648864 0)
(-0.132582 0.0749218 0)
(-0.117028 0.0815803 0)
(-0.102956 0.0845444 0)
(-0.0910131 0.0829503 0)
(-0.0105922 -0.254177 0)
(-0.0290058 -0.249633 0)
(-0.0465546 -0.238218 0)
(-0.0633585 -0.226704 0)
(-0.0799818 -0.216242 0)
(-0.0966015 -0.206149 0)
(-0.113212 -0.19527 0)
(-0.129654 -0.182595 0)
(-0.145583 -0.167405 0)
(-0.1604 -0.149218 0)
(-0.173215 -0.127825 0)
(-0.182874 -0.103424 0)
(-0.188172 -0.0768642 0)
(-0.188374 -0.0497368 0)
(-0.183665 -0.0238489 0)
(-0.174998 -0.000525839 0)
(-0.163592 0.0195672 0)
(-0.150616 0.0362784 0)
(-0.136981 0.0497544 0)
(-0.123326 0.0602195 0)
(-0.110108 0.0677326 0)
(-0.0979225 0.0719303 0)
(-0.0874506 0.0720296 0)
(-0.0095886 -0.235958 0)
(-0.0262887 -0.231967 0)
(-0.0423256 -0.221442 0)
(-0.0576875 -0.210548 0)
(-0.0727766 -0.200426 0)
(-0.0876286 -0.190528 0)
(-0.102196 -0.179887 0)
(-0.116313 -0.167691 0)
(-0.129669 -0.153424 0)
(-0.141784 -0.136817 0)
(-0.152012 -0.117847 0)
(-0.159596 -0.0967902 0)
(-0.163814 -0.0743165 0)
(-0.164259 -0.0514816 0)
(-0.161045 -0.0294504 0)
(-0.154739 -0.00914382 0)
(-0.146113 0.00888967 0)
(-0.13596 0.0244139 0)
(-0.124979 0.037407 0)
(-0.1137 0.0479232 0)
(-0.10254 0.0559058 0)
(-0.092078 0.0609665 0)
(-0.0829931 0.0623903 0)
(-0.00858149 -0.219502 0)
(-0.0236126 -0.215914 0)
(-0.0381258 -0.206149 0)
(-0.0520439 -0.195898 0)
(-0.065623 -0.186228 0)
(-0.078818 -0.176703 0)
(-0.0915638 -0.166507 0)
(-0.103706 -0.154981 0)
(-0.114982 -0.14175 0)
(-0.125018 -0.126673 0)
(-0.133353 -0.109814 0)
(-0.139485 -0.0914548 0)
(-0.142972 -0.0721138 0)
(-0.14358 -0.0525211 0)
(-0.141384 -0.0334641 0)
(-0.13674 -0.0156018 0)
(-0.130153 0.00062483 0)
(-0.122165 0.0149712 0)
(-0.113307 0.0273364 0)
(-0.104005 0.037677 0)
(-0.0946225 0.0458669 0)
(-0.0856976 0.0515115 0)
(-0.0778828 0.0539573 0)
(-0.00762277 -0.204789 0)
(-0.0210598 -0.201448 0)
(-0.0340854 -0.192328 0)
(-0.0465861 -0.182704 0)
(-0.0587019 -0.173545 0)
(-0.0703623 -0.164499 0)
(-0.0814923 -0.154866 0)
(-0.0919533 -0.1441 0)
(-0.10153 -0.13192 0)
(-0.109938 -0.118258 0)
(-0.116847 -0.103217 0)
(-0.12192 -0.0870506 0)
(-0.124879 -0.070165 0)
(-0.125588 -0.0530844 0)
(-0.1241 -0.0363649 0)
(-0.120646 -0.0204915 0)
(-0.11557 -0.00581911 0)
(-0.109256 0.0074284 0)
(-0.102093 0.019119 0)
(-0.0944265 0.0291584 0)
(-0.0865626 0.0373832 0)
(-0.0789855 0.0434068 0)
(-0.0723104 0.0466325 0)
(-0.00675053 -0.191737 0)
(-0.0186865 -0.188551 0)
(-0.0302811 -0.179987 0)
(-0.0414009 -0.170944 0)
(-0.0521203 -0.162311 0)
(-0.0623692 -0.15379 0)
(-0.0720637 -0.144768 0)
(-0.0810806 -0.134779 0)
(-0.0892468 -0.123602 0)
(-0.0963475 -0.111211 0)
(-0.102145 -0.0977185 0)
(-0.106409 -0.083347 0)
(-0.108963 -0.0684179 0)
(-0.109724 -0.0533221 0)
(-0.108733 -0.0384678 0)
(-0.106148 -0.0242222 0)
(-0.102208 -0.0108724 0)
(-0.0971934 0.00138293 0)
(-0.0913897 0.012408 0)
(-0.0850721 0.0220863 0)
(-0.078496 0.0302379 0)
(-0.0720887 0.0364934 0)
(-0.0664219 0.0403092 0)
(-0.00595403 -0.180222 0)
(-0.0164814 -0.177167 0)
(-0.0267151 -0.169095 0)
(-0.0365111 -0.160575 0)
(-0.0459224 -0.152451 0)
(-0.0548795 -0.144457 0)
(-0.0632927 -0.136044 0)
(-0.0710547 -0.1268 0)
(-0.0780283 -0.116544 0)
(-0.0840506 -0.105269 0)
(-0.0889498 -0.0930873 0)
(-0.0925686 -0.0801918 0)
(-0.0947904 -0.0668413 0)
(-0.0955655 -0.0533368 0)
(-0.0949258 -0.0399889 0)
(-0.0929827 -0.0270832 0)
(-0.0899081 -0.0148541 0)
(-0.085909 -0.00347615 0)
(-0.0812006 0.00692316 0)
(-0.0759957 0.0162215 0)
(-0.0705081 0.0242367 0)
(-0.0651097 0.0306216 0)
(-0.0603261 0.0348816 0)
(-0.00519877 -0.170127 0)
(-0.0143965 -0.167196 0)
(-0.0233525 -0.159554 0)
(-0.0319088 -0.151502 0)
(-0.0401137 -0.143855 0)
(-0.0478907 -0.136368 0)
(-0.0551526 -0.128533 0)
(-0.0618096 -0.119977 0)
(-0.067754 -0.110544 0)
(-0.0728633 -0.100236 0)
(-0.0770135 -0.0891594 0)
(-0.0800952 -0.0774822 0)
(-0.0820306 -0.0654167 0)
(-0.0827889 -0.0532017 0)
(-0.0823961 -0.0410816 0)
(-0.0809331 -0.029284 0)
(-0.0785252 -0.0180025 0)
(-0.0753267 -0.0073892 0)
(-0.0715041 0.00243825 0)
(-0.0672179 0.0113633 0)
(-0.0626482 0.01921 0)
(-0.0581167 0.0256557 0)
(-0.0541016 0.03025 0)
(-0.00446549 -0.161379 0)
(-0.0124042 -0.158516 0)
(-0.0201735 -0.15123 0)
(-0.0275886 -0.143603 0)
(-0.0346859 -0.136404 0)
(-0.0413806 -0.129393 0)
(-0.0475975 -0.122093 0)
(-0.0532659 -0.114158 0)
(-0.058304 -0.105447 0)
(-0.062621 -0.0959683 0)
(-0.0661272 -0.0858205 0)
(-0.0687455 -0.0751506 0)
(-0.0704228 -0.0641364 0)
(-0.07114 -0.0529732 0)
(-0.070918 -0.0418589 0)
(-0.0698164 -0.0309798 0)
(-0.0679276 -0.0204978 0)
(-0.0653664 -0.0105453 0)
(-0.0622614 -0.00122949 0)
(-0.0587361 0.00734404 0)
(-0.0549398 0.0150118 0)
(-0.0511517 0.0214758 0)
(-0.0478025 0.0263241 0)
(-0.00376145 -0.153926 0)
(-0.0105193 -0.151021 0)
(-0.0171952 -0.144009 0)
(-0.0235609 -0.136772 0)
(-0.0296304 -0.129997 0)
(-0.0353192 -0.123432 0)
(-0.0405724 -0.116618 0)
(-0.0453401 -0.109231 0)
(-0.0495635 -0.101143 0)
(-0.0531764 -0.092368 0)
(-0.0561134 -0.0829954 0)
(-0.0583192 -0.0731557 0)
(-0.0597564 -0.0630015 0)
(-0.060413 -0.0526969 0)
(-0.0603055 -0.0424069 0)
(-0.0594778 -0.0322876 0)
(-0.0579973 -0.0224772 0)
(-0.0559487 -0.0130915 0)
(-0.0534288 -0.00422681 0)
(-0.0505342 0.00402389 0)
(-0.0473878 0.0115171 0)
(-0.0442365 0.0179782 0)
(-0.0414641 0.0230248 0)
(-0.00310718 -0.147726 0)
(-0.00878225 -0.144632 0)
(-0.0144571 -0.137813 0)
(-0.0198425 -0.130944 0)
(-0.0249349 -0.124573 0)
(-0.0296676 -0.118418 0)
(-0.0340131 -0.112035 0)
(-0.0379439 -0.10512 0)
(-0.0414202 -0.0975587 0)
(-0.0443937 -0.0893688 0)
(-0.0468153 -0.0806344 0)
(-0.0486438 -0.0714725 0)
(-0.0498526 -0.0620169 0)
(-0.0504336 -0.0524091 0)
(-0.0503991 -0.0427904 0)
(-0.0497807 -0.0332953 0)
(-0.0486266 -0.0240445 0)
(-0.0469971 -0.0151415 0)
(-0.0449604 -0.00667227 0)
(-0.0425883 0.00128515 0)
(-0.0399852 0.00861811 0)
(-0.0373783 0.0150739 0)
(-0.0351079 0.020285 0)
(-0.0025005 -0.142568 0)
(-0.00720158 -0.139186 0)
(-0.0119769 -0.132546 0)
(-0.0164237 -0.126055 0)
(-0.0205602 -0.120078 0)
(-0.0243621 -0.114293 0)
(-0.0278363 -0.108276 0)
(-0.0309765 -0.101751 0)
(-0.0337564 -0.0946211 0)
(-0.0361384 -0.0869064 0)
(-0.0380837 -0.0786872 0)
(-0.0395605 -0.0700702 0)
(-0.040549 -0.0611748 0)
(-0.041043 -0.0521258 0)
(-0.0410513 -0.0430475 0)
(-0.0405961 -0.0340588 0)
(-0.0397108 -0.0252693 0)
(-0.0384352 -0.0167753 0)
(-0.0368088 -0.00865631 0)
(-0.0348719 -0.000971713 0)
(-0.0327204 0.00621943 0)
(-0.0305794 0.0126881 0)
(-0.0287524 0.0180512 0)
(-0.00181422 -0.138074 0)
(-0.00563318 -0.134297 0)
(-0.00967684 -0.128042 0)
(-0.0132164 -0.122043 0)
(-0.0164052 -0.116469 0)
(-0.0192925 -0.111009 0)
(-0.0219247 -0.105286 0)
(-0.0243124 -0.0990659 0)
(-0.0264362 -0.0922712 0)
(-0.0282635 -0.0849281 0)
(-0.0297619 -0.0771127 0)
(-0.0309058 -0.0689231 0)