/*--------------------------------*- C++ -*----------------------------------*\
| =========                 |                                                 |
| \\      /  F ield         | OpenFOAM: The Open Source CFD Toolbox           |
|  \\    /   O peration     | Version:  v2012                                 |
|   \\  /    A nd           | Website:  www.openfoam.com                      |
|    \\/     M anipulation  |                                                 |
\*---------------------------------------------------------------------------*/
FoamFile
{
    version     2.0;
    format      ascii;
    class       surfaceScalarField;
    location    "0.5";
    object      alphaPhi0.water;
}
// * * * * * * * * * * * * * * * * * * * * * * * * * * * * * * * * * * * * * //

dimensions      [0 3 -1 0 0 0 0];
oriented        oriented;


internalField   nonuniform List<scalar> 
4432
(
-5.14577e-06
5.14577e-06
-6.49804e-06
1.35227e-06
-4.40167e-06
-2.09637e-06
-1.05982e-06
-3.34185e-06
2.50898e-06
-3.5688e-06
5.92059e-06
-3.41161e-06
9.02019e-06
-3.09961e-06
1.17761e-05
-2.75589e-06
1.42029e-05
-2.4268e-06
1.63247e-05
-2.12184e-06
1.81588e-05
-1.83406e-06
1.97046e-05
-1.5458e-06
2.09312e-05
-1.22657e-06
2.17567e-05
-8.2553e-07
2.19743e-05
-2.17624e-07
2.12145e-05
7.59818e-07
1.90985e-05
2.11601e-06
1.52075e-05
3.89101e-06
9.31558e-06
5.8919e-06
1.67859e-06
7.63699e-06
-6.02287e-06
7.97935e-06
-9.93575e-06
3.71124e-06
-1.03727e-05
-3.59223e-06
8.73799e-06
-3.03822e-06
7.98257e-07
-7.9556e-07
-4.33904e-06
2.18618e-06
-6.3236e-06
5.39138e-06
-6.774e-06
8.48272e-06
-6.50295e-06
1.13259e-05
-5.9428e-06
1.38795e-05
-5.30953e-06
1.61429e-05
-4.69015e-06
1.81268e-05
-4.10572e-06
1.98372e-05
-3.54452e-06
2.12659e-05
-2.97444e-06
2.23815e-05
-2.34217e-06
2.312e-05
-1.56403e-06
2.33985e-05
-4.96135e-07
2.30966e-05
1.06168e-06
2.19204e-05
3.29228e-06
1.94608e-05
6.35056e-06
1.52152e-05
1.01375e-05
8.94868e-06
1.39035e-05
1.47593e-06
1.55657e-05
-3.11581e-06
8.10183e-06
-1.34643e-05
-1.61927e-06
1.03573e-05
-3.61002e-07
-4.60009e-07
1.82915e-06
-6.5292e-06
4.5913e-06
-9.08574e-06
7.4857e-06
-9.66841e-06
1.02722e-05
-9.2894e-06
1.28457e-05
-8.51632e-06
1.51709e-05
-7.63475e-06
1.72421e-05
-6.7614e-06
1.90616e-05
-5.92519e-06
2.06273e-05
-5.11017e-06
2.19258e-05
-4.27292e-06
2.29267e-05
-3.34313e-06
2.35752e-05
-2.21249e-06
2.37952e-05
-7.16152e-07
2.34924e-05
1.36445e-06
2.25219e-05
4.26278e-06
2.06958e-05
8.17673e-06
1.77686e-05
1.30647e-05
1.35632e-05
1.8109e-05
8.26168e-06
2.08671e-05
2.89478e-06
1.3778e-05
-1.05455e-05
2.05296e-07
1.0152e-05
1.85116e-06
-2.10587e-06
4.14074e-06
-8.81878e-06
6.73109e-06
-1.16761e-05
9.34955e-06
-1.22869e-05
1.18406e-05
-1.17805e-05
1.41417e-05
-1.08174e-05
1.62315e-05
-9.72457e-06
1.81031e-05
-8.63294e-06
1.97518e-05
-7.57387e-06
2.11687e-05
-6.5271e-06
2.23368e-05
-5.44106e-06
2.32278e-05
-4.23409e-06
2.3797e-05
-2.78168e-06
2.39824e-05
-9.01529e-07
2.37118e-05
1.63498e-06
2.29086e-05
5.06608e-06
2.14976e-05
9.5877e-06
1.93988e-05
1.51635e-05
1.64902e-05
2.10175e-05
1.25418e-05
2.48156e-05
7.178e-06
1.92426e-05
-3.37365e-06
1.86411e-06
8.28784e-06
3.87384e-06
-4.1156e-06
6.27092e-06
-1.12159e-05
8.72602e-06
-1.41312e-05
1.10801e-05
-1.4641e-05
1.32758e-05
-1.39761e-05
1.53018e-05
-1.28434e-05
1.71532e-05
-1.1576e-05
1.88222e-05
-1.03019e-05
2.02977e-05
-9.04934e-06
2.15645e-05
-7.79394e-06
2.26029e-05
-6.47945e-06
2.33878e-05
-5.01899e-06
2.38857e-05
-3.27961e-06
2.40504e-05
-1.06624e-06
2.3832e-05
1.8534e-06
2.31942e-05
5.7039e-06
2.21218e-05
1.06601e-05
2.0613e-05
1.66723e-05
1.85624e-05
2.30681e-05
1.55256e-05
2.78524e-05
1.01089e-05
2.46593e-05
6.723e-06
3.02292e-06
5.26492e-06
5.70004e-06
-6.79272e-06
8.27874e-06
-1.37946e-05
1.06039e-05
-1.64563e-05
1.26805e-05
-1.67176e-05
1.4573e-05
-1.58686e-05
1.63235e-05
-1.45939e-05
1.79391e-05
-1.31917e-05
1.94081e-05
-1.17709e-05
2.07121e-05
-1.03533e-05
2.183e-05
-8.91178e-06
2.27398e-05
-7.38923e-06
2.34211e-05
-5.7003e-06
2.38528e-05
-3.7113e-06
2.40049e-05
-1.21837e-06
2.38472e-05
2.01115e-06
2.33714e-05
6.17965e-06
2.25974e-05
1.14341e-05
2.15655e-05
1.77042e-05
2.0178e-05
2.44555e-05
1.78694e-05
3.0161e-05
1.25758e-05
2.9953e-05
1.92875e-05
3.89553e-06
1.36939e-06
7.42057e-06
-1.03177e-05
1.02165e-05
-1.65904e-05
1.23607e-05
-1.86005e-05
1.41199e-05
-1.84768e-05
1.5699e-05
-1.74476e-05
1.71803e-05
-1.60752e-05
1.85705e-05
-1.45819e-05
1.98483e-05
-1.30486e-05
2.09868e-05
-1.14919e-05
2.19591e-05
-9.88407e-06
2.27418e-05
-8.17196e-06
2.33205e-05
-6.27899e-06
2.3688e-05
-4.0788e-06
2.38311e-05
-1.36145e-06
2.37363e-05
2.10598e-06
2.34166e-05
6.49935e-06
2.29157e-05
1.19349e-05
2.23085e-05
1.83115e-05
2.15238e-05
2.52403e-05
1.99859e-05
3.16989e-05
1.50919e-05
3.48469e-05
3.43682e-05
4.7877e-06
-3.4183e-06
9.21975e-06
-1.47492e-05
1.20971e-05
-1.94662e-05
1.39257e-05
-2.04274e-05
1.53217e-05
-1.98715e-05
1.65968e-05
-1.87219e-05
1.78361e-05
-1.7314e-05
1.90247e-05
-1.57705e-05
2.01283e-05
-1.41522e-05
2.11132e-05
-1.24768e-05
2.19469e-05
-1.07177e-05
2.26053e-05
-8.83037e-06
2.30812e-05
-6.75492e-06
2.33839e-05
-4.38153e-06
2.35176e-05
-1.49509e-06
2.34829e-05
2.14065e-06
2.3309e-05
6.67326e-06
2.30583e-05
1.21856e-05
2.28466e-05
1.85232e-05
2.26678e-05
2.54191e-05
2.20778e-05
3.22889e-05
1.83819e-05
3.85428e-05
5.27393e-05
9.01251e-21
-4.76348e-20
1.4857e-20
2.0435e-21
-6.91317e-20
3.26018e-19
-9.72807e-17
3.41226e-17
-2.32348e-15
6.36758e-16
-1.92393e-14
4.93321e-15
-8.09023e-14
2.54747e-14
-2.87073e-13
1.11944e-13
-1.11008e-12
3.96507e-13
-3.69463e-12
1.14552e-12
-1.23487e-11
2.77544e-12
-4.63074e-11
5.68194e-12
-1.63767e-10
1.18627e-11
-4.96941e-10
2.93518e-11
-1.4482e-09
7.81037e-11
-4.24213e-09
4.06145e-12
-1.07084e-08
9.7577e-10
-2.48942e-08
1.76115e-09
-5.17326e-08
1.10897e-21
-2.0312e-19
-1.39321e-18
1.06819e-18
-9.77175e-17
7.15383e-17
-2.00489e-15
1.24347e-15
-1.51414e-14
9.4546e-15
-6.73372e-14
4.09612e-14
-3.01829e-13
1.54485e-13
-1.16884e-12
5.47093e-13
-4.16698e-12
1.78593e-12
-1.44759e-11
4.90733e-12
-4.27061e-11
1.2402e-11
-1.03193e-10
3.02725e-11
-3.08907e-10
8.35499e-11
-1.26226e-09
2.68093e-10
-6.28078e-09
6.97497e-10
-2.62074e-08
-2.89573e-10
-4.82803e-08
-5.14131e-09
-1.02037e-07
2.86794e-08
-2.10072e-07
-3.78964e-19
-3.69992e-19
-1.77695e-17
1.37491e-17
-4.61125e-16
3.57372e-16
-5.5742e-15
4.02091e-15
-2.79449e-14
2.20809e-14
-7.85997e-14
6.94008e-14
-2.60909e-13
2.15029e-13
-9.05918e-13
7.18507e-13
-3.7382e-12
2.5241e-12
-1.3141e-11
6.56608e-12
-4.93873e-11
1.79083e-11
-1.72318e-10
4.42476e-11
-5.77594e-10
1.24053e-10
-1.99639e-09
4.00794e-10
-6.33732e-09
8.95172e-10
-3.17113e-08
-2.65557e-09
-1.23185e-07
-5.41829e-08
-2.3244e-07
-6.30162e-08
-6.2056e-07
-1.57045e-18
4.16748e-19
-5.15965e-17
5.02386e-17
-1.03001e-15
9.20127e-16
-9.33098e-15
8.16504e-15
-3.44713e-14
3.16084e-14
-7.74495e-14
7.96441e-14
-1.95507e-13
2.57609e-13
-8.20651e-13
1.0658e-12
-4.1623e-12
4.84702e-12
-9.03264e-12
9.58058e-12
-2.66997e-11
2.39205e-11
-9.95526e-11
6.2521e-11
-3.41653e-10
1.52288e-10
-1.13797e-09
4.37478e-10
-3.31884e-09
5.29609e-10
-9.15963e-09
-5.66455e-09
-1.43867e-07
-6.78354e-08
-4.26097e-07
-4.30766e-07
-1.52571e-06
-2.56085e-18
1.88876e-18
-9.22095e-17
8.68238e-17
-1.53712e-15
1.51643e-15
-9.19755e-15
1.06726e-14
-2.85743e-14
3.45971e-14
-6.0925e-14
8.03675e-14
-2.36466e-13
3.93373e-13
-1.46348e-12
2.66919e-12
-1.08746e-11
1.36517e-11
-2.1063e-11
1.95404e-11
-2.62488e-11
6.38101e-11
-6.71689e-11
1.21238e-10
-1.14434e-10
2.02881e-10
-8.48065e-11
3.65326e-10
-1.75768e-11
7.25914e-12
-4.92707e-09
-1.62383e-09
-6.45605e-08
-2.13838e-08
-6.19132e-07
-4.09452e-07
-2.99297e-06
-1.56496e-18
5.8281e-18
-6.41389e-17
1.07273e-16
-1.09352e-15
1.58575e-15
-4.16662e-15
8.94578e-15
-8.92377e-15
2.84293e-14
-6.47323e-14
1.28558e-13
-6.47445e-13
9.37167e-13
-1.92689e-11
9.1683e-12
-3.50909e-11
6.05452e-11
-5.55208e-11
1.36895e-10
-3.48871e-10
4.94618e-10
-4.88714e-10
6.11285e-10
-5.81801e-10
3.36509e-10
-1.07758e-09
1.33818e-10
-8.49014e-09
7.03385e-09
-1.76144e-08
6.03074e-09
-2.52055e-08
-7.56539e-08
-8.42542e-07
1.64797e-07
-4.83006e-06
1.64438e-18
3.50067e-17
-2.77195e-17
4.5227e-16
-3.06003e-16
1.53874e-15
-1.89218e-15
7.20919e-15
-4.62434e-15
2.59907e-14
2.23734e-14
1.06432e-13
3.7986e-13
5.55526e-13
3.98677e-12
3.8704e-12
2.54714e-11
3.13275e-11
-4.95493e-10
2.91083e-10
-1.37482e-09
6.57101e-10
-1.48377e-09
8.15071e-10
-9.86673e-10
2.55077e-10
-4.47605e-09
4.12925e-09
2.30142e-09
4.98933e-09
2.05102e-07
-2.45854e-07
5.37625e-07
-6.48374e-07
-4.1778e-07
1.08296e-07
-7.87553e-06
1.29747e-17
5.82521e-17
1.95563e-17
6.48136e-16
1.51426e-17
1.51347e-15
-1.33599e-16
7.67181e-15
-2.29451e-15
2.77953e-14
-2.85704e-14
1.30804e-13
1.63336e-13
3.81724e-13
2.03282e-12
1.66187e-12
5.44872e-12
9.58323e-12
-3.50269e-11
1.78406e-10
-1.41285e-10
4.31446e-10
-1.44222e-10
3.41354e-10
1.13346e-09
-9.15977e-10
8.21828e-08
-7.6604e-08
6.18622e-07
-5.58315e-07
1.68516e-06
-1.70481e-06
2.28117e-06
-2.27282e-06
1.28852e-06
-1.81277e-06
-1.381e-05
1.47012e-05
-1.61536e-05
2.54573e-05
-2.13196e-05
3.0217e-05
-1.89689e-05
3.27332e-05
-1.81192e-05
3.48286e-05
-1.81229e-05
3.69598e-05
-1.82091e-05
3.91321e-05
-1.80227e-05
4.11185e-05
-1.74343e-05
4.30103e-05
-1.60434e-05
4.47169e-05
-1.4183e-05
4.61289e-05
-1.21296e-05
4.7181e-05
-9.8824e-06
4.78801e-05
-7.45395e-06
4.83191e-05
-4.82058e-06
4.85682e-05
-1.74417e-06
4.86702e-05
2.03868e-06
4.87341e-05
6.6093e-06
4.89229e-05
1.19968e-05
4.96555e-05
1.77906e-05
5.12191e-05
2.38556e-05
5.35311e-05
2.99768e-05
5.66435e-05
3.54305e-05
4.20539e-05
6.73407e-05
1.05727e-05
8.95611e-15
1.12606e-05
1.41451e-14
1.18092e-05
5.54127e-14
1.34582e-05
1.15663e-13
1.57896e-05
1.81101e-13
1.87363e-05
2.20101e-13
2.23095e-05
1.94124e-13
2.63319e-05
1.31901e-13
3.03736e-05
-4.14079e-06
3.42259e-05
-4.66561e-06
3.7972e-05
-5.0167e-06
4.12008e-05
-5.05639e-06
4.36535e-05
-4.67303e-06
4.52066e-05
-3.7794e-06
4.56997e-05
-1.78554e-06
4.60394e-05
1.69891e-06
4.6567e-05
6.08175e-06
4.73376e-05
1.12261e-05
4.90452e-05
1.60829e-05
5.19679e-05
2.09329e-05
5.59893e-05
2.59553e-05
6.0979e-05
3.04408e-05
3.51481e-05
6.78848e-05
-5.81807e-15
3.45501e-14
-1.24159e-14
6.43742e-14
-6.96947e-14
3.11164e-13
-1.68215e-13
6.61001e-13
-2.81426e-13
1.01564e-12
-3.64979e-13
1.45422e-12
-3.51307e-13
2.14828e-12
-2.59588e-13
3.06919e-12
6.68789e-07
4.18532e-12
2.29044e-06
4.34452e-12
4.53143e-06
3.32955e-12
7.94744e-06
1.93732e-12
1.33385e-05
8.32678e-13
2.14934e-05
2.33451e-13
3.12579e-05
-3.85136e-07
3.88325e-05
5.00262e-07
4.2407e-05
3.75218e-06
4.43914e-05
9.2417e-06
4.69094e-05
1.3565e-05
5.05146e-05
1.73277e-05
5.46366e-05
2.18333e-05
5.91431e-05
2.59344e-05
2.978e-05
6.45112e-05
5.73586e-15
4.59551e-14
-6.66184e-15
1.43582e-13
-1.40214e-13
6.44585e-13
-4.97102e-13
1.33839e-12
-9.98939e-13
1.88864e-12
-1.7374e-12
2.45305e-12
-3.06965e-12
3.24263e-12
-5.59065e-12
4.39977e-12
-8.44858e-12
5.4513e-12
-9.92058e-12
5.59293e-12
-9.22933e-12
4.61471e-12
-6.92617e-12
3.0668e-12
-4.1899e-12
1.62019e-12
-1.837e-12
6.06769e-13
1.26358e-07
9.07206e-11
2.94765e-06
2.83943e-09
1.06406e-05
2.36034e-08
2.54089e-05
2.18419e-07
4.13788e-05
3.15753e-06
4.83547e-05
1.03518e-05
5.32087e-05
1.69793e-05
5.8249e-05
2.0894e-05
2.42733e-05
6.37557e-05
4.18856e-14
1.59532e-14
1.31147e-13
8.51714e-14
-3.10636e-14
6.08455e-13
-3.85727e-13
1.30747e-12
-9.41551e-13
1.84415e-12
-1.70169e-12
2.22574e-12
-2.91599e-12
2.40215e-12
-5.05706e-12
2.36716e-12
-7.93694e-12
2.16431e-12
-1.01932e-11
1.84009e-12
-1.07279e-11
1.44022e-12
-9.53166e-12
1.01311e-12
-7.3459e-12
6.01588e-13
-4.97407e-12
2.38617e-13
8.53661e-12
4.42256e-14
2.80567e-09
8.97637e-12
2.633e-08
1.21923e-10
2.4443e-07
1.01824e-09
4.57985e-06
1.495e-08
1.82974e-05
5.51909e-08
3.87674e-05
6.78109e-07
5.39902e-05
5.60669e-06
1.39678e-05
6.42956e-05
8.72446e-15
2.63716e-15
5.45292e-14
9.22129e-15
-1.51578e-14
3.18623e-13
-2.13885e-13
7.3803e-13
-5.69313e-13
1.10653e-12
-1.0184e-12
1.37518e-12
-1.48908e-12
1.51699e-12
-1.91938e-12
1.53161e-12
-2.25537e-12
1.43904e-12
-2.46219e-12
1.26369e-12
-2.53099e-12
1.03261e-12
-2.47107e-12
7.72176e-13
-2.30359e-12
5.06023e-13
-2.06235e-12
2.57952e-13
-1.78497e-12
6.16874e-14
7.2855e-12
9.80904e-14
1.26873e-10
1.70014e-12
1.14416e-09
3.78406e-12
1.61001e-08
1.10208e-10
7.15317e-08
5.5376e-10
9.20957e-07
4.27339e-09
7.08912e-06
3.29973e-08
7.48439e-08
2.25552e-05
3.31547e-16
8.39833e-16
5.10699e-15
9.09638e-16
-1.43383e-14
1.06486e-13
-9.57859e-14
2.82257e-13
-2.52601e-13
4.5299e-13
-4.65017e-13
5.82381e-13
-7.02823e-13
6.56392e-13
-9.36397e-13
6.75106e-13
-1.14056e-12
6.46253e-13
-1.30051e-12
5.80586e-13
-1.41165e-12
4.89768e-13
-1.47684e-12
3.85094e-13
-1.50227e-12
2.7576e-13
-1.49425e-12
1.71219e-13
-1.45082e-12
8.37708e-14
-1.33985e-12
2.65502e-14
3.58413e-13
1.35344e-15
3.87875e-12
1.23392e-13
1.1194e-10
4.10311e-13
6.64501e-10
3.97666e-13
4.95053e-09
4.80289e-12
3.81555e-08
1.63433e-10
5.33143e-10
1.13846e-07
1.00323e-17
2.11373e-16
-9.91242e-18
2.07227e-16
-5.49735e-15
2.67083e-14
-3.04129e-14
7.90164e-14
-8.01157e-14
1.33121e-13
-1.50667e-13
1.74887e-13
-2.33505e-13
1.99191e-13
-3.19379e-13
2.06218e-13
-4.00336e-13
1.98228e-13
-4.71383e-13
1.78581e-13
-5.30755e-13
1.51086e-13
-5.79522e-13
1.20634e-13
-6.1838e-13
8.97426e-14
-6.46107e-13
6.0188e-14
-6.58745e-13
3.50896e-14
-6.48661e-13
1.66345e-14
-6.17142e-13
5.93076e-15
-1.68218e-13
9.69258e-16
2.34808e-13
1.75614e-15
5.96887e-13
1.40586e-15
5.2642e-12
-6.68897e-15
1.63201e-10
-8.12548e-14
-2.00663e-12
6.56976e-10
-9.44205e-19
3.50116e-17
-3.98241e-18
3.15099e-17
-1.20355e-15
5.04143e-15
-6.52481e-15
1.61063e-14
-1.75262e-14
2.78343e-14
-3.37382e-14
3.67355e-14
-5.34569e-14
4.16545e-14
-7.46472e-14
4.272e-14
-9.52863e-14
4.01634e-14
-1.13759e-13
3.44986e-14
-1.29e-13
2.61878e-14
-1.41678e-13
1.83288e-14
-1.51317e-13
1.16894e-14
-1.55102e-13
5.59412e-15
-1.5003e-13
5.09724e-16
-1.29687e-13
-4.76454e-15
-1.00424e-13
-1.0865e-14
-7.37382e-14
-8.01599e-15
-2.20245e-14
-5.79014e-15
-1.18968e-15
-5.44085e-15
3.06572e-15
-8.4145e-15
3.05909e-14
-1.93695e-14
-3.34482e-14
1.46831e-13
-2.51272e-19
3.24764e-18
-4.47191e-19
3.19857e-18
-1.47252e-16
6.47959e-16
-8.63169e-16
2.20633e-15
-2.44996e-15
3.86216e-15
-4.90087e-15
5.05246e-15
-7.97838e-15
5.61268e-15
-1.13441e-14
5.55502e-15
-1.4489e-14
4.69457e-15
-1.67718e-14
2.92728e-15
-1.72062e-14
-3.91615e-16
-1.64885e-14
-3.56805e-15
-1.47243e-14
-4.88948e-15
-1.01687e-14
-5.09981e-15
-1.3826e-15
-6.53294e-15
2.92361e-14
-9.86258e-15
7.44518e-14
-1.49419e-14
8.62879e-14
-1.23216e-14
9.57017e-14
-8.17704e-15
1.12459e-13
-9.0569e-15
2.30598e-13
-1.18934e-14
3.7846e-13
-2.47005e-14
-3.94806e-14
4.36992e-13
-1.02742e-20
1.50435e-19
-9.8413e-21
5.28558e-19
-6.23338e-18
4.4721e-17
-5.29672e-17
1.71565e-16
-1.81722e-16
3.17264e-16
-4.02681e-16
4.12931e-16
-6.93e-16
4.35678e-16
-1.00464e-15
3.69261e-16
-1.20108e-15
1.21973e-16
-1.03867e-15
-3.35641e-16
3.87078e-16
-1.81736e-15
2.77484e-15
-4.06016e-15
4.73453e-15
-4.69796e-15
7.92237e-15
-4.69759e-15
1.59559e-14
-2.87103e-15
3.59716e-14
-1.9761e-15
4.97304e-14
-2.39705e-15
5.43254e-14
-2.82582e-15
4.97147e-14
-2.4635e-15
5.61268e-14
-1.65861e-15
1.03991e-13
-8.15829e-16
2.81966e-13
-3.31135e-16
-7.42594e-17
5.24907e-13
1.72677e-21
2.47922e-20
4.23668e-19
1.65834e-19
1.69793e-18
1.38485e-18
1.01007e-18
9.74451e-18
-3.45396e-18
2.41284e-17
-1.36682e-17
3.15647e-17
-2.8269e-17
2.66023e-17
-3.9952e-17
2.56989e-18
-2.02493e-17
-3.94267e-17
1.51136e-16
-3.02036e-16
9.86202e-16
-4.41337e-16
2.35249e-15
-6.74411e-16
3.02446e-15
-1.59023e-15
2.77135e-15
-1.11589e-15
1.61342e-15
-4.80387e-16
1.61651e-15
-1.25007e-16
2.30756e-15
-5.36853e-17
3.74135e-15
-5.09365e-17
4.18047e-15
-5.22481e-17
2.39066e-15
-7.0536e-17
6.78011e-16
-9.29726e-17
4.05373e-16
-9.13827e-17
-1.08823e-16
4.07218e-16
1.61016e-21
7.77811e-21
2.84474e-20
5.68536e-20
2.59436e-19
4.54148e-19
6.43775e-19
2.59093e-18
6.30019e-19
5.99764e-18
1.48773e-19
6.91837e-18
-4.41181e-19
4.46738e-18
-1.23793e-19
-1.31437e-18
6.88137e-18
-6.28806e-18
4.04238e-17
-2.20787e-17
5.60914e-17
-4.51239e-17
1.54986e-16
-5.68277e-17
4.07191e-16
-5.51937e-17
3.19964e-16
-4.87394e-17
1.3002e-16
-3.44603e-17
4.43663e-17
-3.35808e-17
4.33395e-17
-3.1772e-17
5.10312e-17
-3.05466e-17
8.55949e-17
-3.63577e-17
1.61161e-16
-4.58474e-17
2.79008e-16
-4.85916e-17
4.12246e-16
-4.62328e-17
-3.94848e-17
5.32993e-16
8.40476e-22
2.08057e-21
1.31223e-20
1.57112e-20
1.01208e-19
1.16972e-19
2.65504e-19
5.60303e-19
3.03013e-19
1.18451e-18
1.64752e-19
1.16117e-18
-2.95581e-20
5.30922e-19
2.21483e-21
-1.13381e-20
1.75266e-19
-9.40943e-19
1.38915e-18
-4.51988e-18
4.13741e-18
-7.08562e-18
6.63679e-18
-7.24166e-18
8.98664e-18
-6.55637e-18
1.10774e-17
-4.77175e-18
1.1265e-17
-2.73618e-18
1.81841e-17
-1.9076e-18
3.30326e-17
-1.83864e-18
4.80321e-17
-1.81547e-18
6.5272e-17
-1.73646e-18
7.27903e-17
-1.4798e-18
7.74004e-17
-1.35254e-18
7.99615e-17
-1.34336e-18
-1.83939e-18
7.678e-17
2.84013e-22
4.47272e-22
3.99352e-21
3.30499e-21
2.63764e-20
2.25079e-20
6.63789e-20
9.24427e-20
7.00286e-20
1.73679e-19
3.14019e-20
1.38302e-19
-6.0613e-22
4.60041e-20
-4.07796e-21
-1.7115e-20
-2.16416e-20
-1.273e-19
7.25656e-20
-4.87006e-19
2.78475e-19
-8.02732e-19
5.0392e-19
-8.07662e-19
7.09789e-19
-6.51823e-19
6.43876e-19
-3.4477e-19
5.02148e-19
-1.12158e-19
5.71888e-19
-5.46269e-20
7.42581e-19
-5.3319e-20
9.39888e-19
-5.40558e-20
1.09881e-18
-5.48863e-20
1.16e-18
-6.48301e-20
1.37183e-18
-1.30592e-19
2.1539e-18
-3.80313e-19
-1.69529e-18
5.82981e-18
6.47927e-23
7.14849e-23
8.20943e-22
4.8962e-22
4.72149e-21
2.96959e-21
1.08765e-20
1.04325e-20
9.7287e-21
1.68233e-20
3.38081e-21
1.02118e-20
-1.22276e-21
2.45217e-21
-1.72938e-21
-2.06098e-21
-7.77999e-21
-1.15326e-20
-8.91285e-21
-3.85137e-20
6.07602e-21
-5.41783e-20
2.56706e-20
-5.20501e-20
3.60315e-20
-3.77757e-20
2.245e-20
-1.67077e-20
1.02551e-20
-4.39124e-21
1.12721e-20
-1.91429e-21
1.52126e-20
-1.88059e-21
2.04178e-20
-2.05857e-21
2.75951e-20
-3.58667e-21
5.29154e-20
-1.56518e-20
2.09886e-19
-9.16085e-20
9.96898e-19
-4.39807e-19
-2.50644e-18
5.11305e-18
9.61628e-24
7.65739e-24
1.08104e-22
4.58001e-23
5.40237e-22
2.33151e-22
1.09271e-21
6.7056e-22
7.66323e-22
8.88899e-22
1.9932e-22
3.95905e-22
-9.45486e-23
-6.97979e-24
-1.87169e-22
-1.87806e-22
-1.01335e-21
-7.06438e-22
-1.45296e-21
-1.73981e-21
-6.78079e-22
-2.3578e-21
3.06938e-22
-2.29144e-21
9.06174e-22
-1.75706e-21
5.61634e-22
-9.07215e-22
2.37811e-22
-2.87666e-22
2.73242e-22
-9.84384e-23
3.83914e-22
-1.01391e-22
6.35055e-22
-2.09591e-22
2.1806e-21
-1.33358e-21
1.72253e-20
-1.16455e-20
1.42529e-19
-8.85948e-20
9.19634e-19
-5.69911e-19
-5.51248e-18
8.22485e-18
8.49802e-25
5.45237e-25
8.06244e-24
2.95965e-24
3.35718e-23
1.21557e-23
5.69592e-23
2.9953e-23
2.99544e-23
4.26878e-23
-5.86302e-25
2.82073e-23
-2.64612e-24
2.16741e-24
-1.64192e-23
-8.30383e-24
-5.59111e-23
-2.67001e-23
-8.43757e-23
-4.4362e-23
-5.98929e-23
-7.43618e-23
-2.38859e-23
-8.26042e-23
1.08626e-23
-7.40746e-23
1.78507e-23
-4.64816e-23
9.04636e-24
-1.54484e-23
9.50793e-24
-5.12406e-24
1.59285e-23
-1.01007e-23
7.5568e-23
-7.90417e-23
8.58149e-22
-8.51567e-22
1.055e-20
-8.66761e-21
1.09498e-19
-8.45998e-20
1.09641e-18
-8.98746e-19
-1.08718e-17
1.33048e-17
4.95713e-26
5.64585e-26
3.84859e-25
3.98643e-25
1.40145e-24
1.92337e-24
2.60649e-24
5.68792e-24
2.07146e-24
1.03123e-23
1.80078e-25
7.11971e-24
-4.00063e-25
5.22112e-25
-8.23959e-25
-4.9757e-25
-1.48114e-24
-7.21956e-25
-2.73119e-24
-8.10927e-25
-2.81659e-24
-1.80134e-24
-1.82303e-24
-2.42715e-24
-4.94076e-25
-2.21592e-24
3.54004e-25
-1.3979e-24
2.72153e-25
-3.80063e-25
3.27972e-25
-4.52728e-25
1.78846e-24
-3.37651e-24
2.72498e-23
-4.22498e-23
4.24749e-22
-5.0253e-22
5.70592e-21
-5.48762e-21
8.0001e-20
-7.56184e-20
1.29638e-18
-1.25259e-18
-1.66185e-17
1.78848e-17
5.81175e-27
7.53738e-27
5.43599e-26
5.36589e-26
2.43158e-25
2.72128e-25
5.86355e-25
8.58173e-25
4.94855e-25
1.69524e-24
4.16896e-26
1.00245e-24
-2.41179e-26
-1.51568e-26
-3.10757e-26
-5.72838e-26
-3.37436e-26
-4.18357e-26
-6.10424e-26
-3.56961e-26
-9.31523e-26
-4.73197e-26
-7.03074e-26
-4.59344e-26
-3.37406e-26
-3.72819e-26
-1.29252e-27
-2.01798e-26
5.73191e-27
-1.23604e-26
2.43201e-26
-9.52673e-26
5.30809e-25
-1.45792e-24
1.06383e-23
-1.98624e-23
1.7595e-22
-2.51584e-22
2.59428e-21
-2.88275e-21
5.35408e-20
-5.892e-20
1.31309e-18
-1.48195e-18
-2.05639e-17
1.92304e-17
6.62275e-28
5.09167e-28
6.76576e-27
3.64514e-27
3.31311e-26
1.93675e-26
8.8638e-26
6.473e-26
6.49794e-26
1.35625e-25
-1.1429e-27
-1.02439e-26
-2.63136e-27
-1.94963e-26
-2.1734e-27
-5.11639e-27
-1.68348e-27
-3.10206e-27
-2.11047e-27
-2.23126e-27
-1.88953e-27
-1.4609e-27
-1.44644e-27
-6.55538e-28
-6.20439e-28
-1.03787e-28
-1.78742e-28
-1.33413e-28
1.96829e-29
-1.75001e-27
4.27648e-27
-3.35254e-26
1.4963e-25
-5.43698e-25
3.32649e-24
-8.14062e-24
6.13528e-23
-1.08294e-22
9.74626e-22
-1.26746e-21
3.03218e-20
-3.85301e-20
1.16568e-18
-1.51609e-18
-2.17926e-17
1.75971e-17
3.7523e-29
6.05378e-31
4.23182e-28
1.71281e-30
2.25559e-27
1.47312e-30
6.50291e-27
-9.68027e-31
-6.15853e-28
-4.36958e-28
-1.37691e-27
-1.97518e-26
-2.17742e-28
-3.03356e-27
-1.63215e-28
-1.15061e-28
-1.19385e-28
-5.47026e-29
-8.22058e-29
-5.87243e-29
-4.09508e-29
-5.47211e-29
-3.86698e-30
-3.11617e-29
-3.12286e-30
-6.31868e-30
-4.85534e-30
-2.70549e-29
-3.99341e-29
-5.51301e-28
4.40279e-28
-1.02805e-26
2.98634e-26
-1.83209e-25
8.63014e-25
-2.99485e-24
1.78533e-23
-4.14023e-23
3.01099e-22
-4.80436e-22
1.41144e-20
-2.10646e-20
8.14162e-19
-1.09964e-18
-1.76536e-17
1.33636e-17
1.46475e-32
4.96264e-34
2.86056e-32
1.05937e-33
-3.07495e-32
7.92589e-34
-9.98919e-31
1.42915e-34
-1.10424e-27
3.29979e-36
-2.00573e-28
-9.11376e-34
-6.55863e-30
-4.11951e-33
-2.22172e-30
-4.98019e-32
-2.49498e-30
-1.57703e-31
-2.46638e-30
-1.22321e-31
-1.79383e-30
-5.12302e-32
-2.50183e-31
-3.36216e-32
-2.47165e-31
-2.40038e-31
-1.72314e-30
-6.19472e-30
-2.27841e-29
-1.38929e-28
-1.55101e-28
-2.92742e-27
3.25076e-27
-5.68658e-26
1.70798e-25
-1.00844e-24
4.2554e-24
-1.45195e-23
7.63495e-23
-1.62746e-22
5.2712e-21
-9.53421e-21
3.9344e-19
-6.85804e-19
-1.30446e-17
7.49548e-18
7.60296e-36
2.10198e-50
1.3968e-35
3.73022e-47
4.21419e-36
1.32564e-44
1.36524e-37
1.122e-42
-4.78133e-35
-1.06989e-40
-5.96671e-35
-2.90779e-38
-6.19156e-34
-7.03877e-36
-6.05751e-33
-8.53098e-35
-5.88307e-33
-3.45157e-34
-2.68061e-33
-7.09803e-34
-1.42683e-33
-1.02391e-33
-1.64769e-33
-2.57329e-33
-2.06115e-32
-5.44824e-32
-4.51785e-31
-1.39228e-30
-8.17932e-30
-3.413e-29
-1.15706e-28
-7.77533e-28
-8.80839e-28
-1.64641e-26
1.58055e-26
-3.14855e-25
7.37614e-25
-4.72554e-24
1.52636e-23
-5.06711e-23
1.49784e-21
-3.54247e-21
1.66661e-19
-3.83332e-19
-8.97347e-18
3.98694e-18
2.27238e-49
-2.83144e-52
2.18108e-46
-1.18501e-52
3.14325e-44
-1.57308e-49
-4.21346e-42
-1.18788e-46
-7.3314e-42
-6.13263e-44
-1.77576e-38
-2.6678e-41
-8.43317e-37
-1.77863e-38
-7.13367e-36
-1.18829e-36
-2.12213e-35
-7.17333e-36
-3.09747e-35
-1.66198e-35
-4.44172e-35
-2.70659e-35
-2.0646e-34
-3.1707e-34
-4.85329e-33
-1.01439e-32
-1.16471e-31
-2.89653e-31
-2.52308e-30
-7.75531e-30
-4.79273e-29
-1.92785e-28
-7.83651e-28
-4.40559e-27
-7.8105e-27
-9.00469e-26
2.4937e-26
-1.40776e-24
1.88779e-24
-1.47815e-23
2.84824e-22
-1.06223e-21
5.46163e-20
-1.80349e-19
-5.56906e-18
1.7786e-18
-3.06659e-55
-2.17332e-54
-1.36668e-52
1.77784e-53
-1.62404e-49
4.95913e-51
-1.18379e-46
-5.71362e-49
-6.14137e-44
-1.58287e-46
-2.6789e-41
-7.064e-44
-6.75962e-39
-4.547e-41
-1.2527e-37
-6.45176e-39
-4.41827e-37
-4.51977e-38
-6.81857e-37
-1.24274e-37
-1.52886e-36
-1.36185e-36
-3.06845e-35
-5.44486e-35
-9.5823e-34
-1.79186e-33
-2.68127e-32
-5.58833e-32
-6.84933e-31
-1.63999e-30
-1.58017e-29
-4.415e-29
-3.40616e-28
-1.06927e-27
-5.88502e-27
-2.28084e-26
-2.9908e-26
-3.65086e-25
-1.44865e-25
-4.10993e-24
1.69141e-23
-3.14036e-22
1.03227e-20
-7.3014e-20
-3.13797e-18
5.81318e-19
7.67872e-56
-2.21013e-55
7.68233e-53
-2.77014e-54
-8.12681e-51
-2.93097e-54
-5.75342e-49
-4.08723e-51
-1.56524e-46
-1.536e-48
-7.08973e-44
-4.19784e-46
-2.9774e-41
-3.44928e-44
-6.52375e-40
-1.60397e-42
-1.84278e-39
-8.52183e-41
-6.14372e-39
-4.12071e-39
-1.35278e-37
-2.04126e-37
-5.25151e-36
-7.94324e-36
-1.77429e-34
-2.9027e-34
-5.67009e-33
-9.97558e-33
-1.67464e-31
-3.16902e-31
-4.4476e-30
-9.10625e-30
-1.11355e-28
-2.2815e-28
-2.20824e-27
-4.90344e-27
-1.56264e-26
-7.85786e-26
-1.72611e-25
-1.09045e-24
-4.22937e-23
-1.00958e-22
-5.17365e-21
-2.77415e-20
-1.57696e-18
6.50882e-20
-9.7099e-57
-7.98606e-57
-2.18322e-56
-7.91509e-56
-2.60557e-54
-3.47227e-55
-3.95109e-51
-1.74196e-52
-2.36691e-49
-1.01039e-49
-3.54073e-47
-3.66214e-47
-2.03904e-45
-3.69e-45
-1.16307e-43
-1.85997e-43
-6.31538e-42
-1.03666e-41
-3.95518e-40
-5.65357e-40
-1.89556e-38
-2.49151e-38
-7.77486e-37
-1.05131e-36
-3.01704e-35
-4.30378e-35
-1.09057e-33
-1.61436e-33
-3.64005e-32
-5.41807e-32
-1.07271e-30
-1.62665e-30
-2.88583e-29
-4.10061e-29
-5.58828e-28
-8.57752e-28
-4.90093e-27
-1.39e-26
-8.56229e-26
-3.13067e-25
-2.87454e-23
-3.63291e-23
-1.11698e-20
-9.8962e-21
-6.99141e-19
-1.34247e-19
-7.44995e-59
-2.55086e-58
-4.50133e-58
-1.16092e-58
-3.32137e-55
-1.82796e-56
-1.61345e-52
-1.32241e-53
-1.12399e-50
-8.78873e-51
-3.05331e-48
-2.14066e-48
-2.22095e-46
-1.86908e-46
-1.32525e-44
-1.50689e-44
-8.96159e-43
-9.54536e-43
-4.768e-41
-5.10429e-41
-2.24693e-39
-2.62672e-39
-1.05128e-37
-1.27728e-37
-4.67042e-36
-5.61226e-36
-1.85988e-34
-2.26784e-34
-6.81609e-33
-7.80827e-33
-2.15142e-31
-2.39189e-31
-5.76653e-30
-5.92348e-30
-1.04238e-28
-1.20079e-28
-1.18003e-27
-2.2739e-27
-4.16548e-26
-1.08337e-25
-1.34775e-23
-1.42546e-23
-7.37684e-21
-3.34924e-21
-2.70815e-19
-1.43026e-19
-1.58142e-61
-6.77757e-60
-1.15075e-60
-3.93745e-60
-1.73406e-56
-9.97045e-58
-1.24074e-53
-8.36142e-55
-8.02092e-52
-6.03256e-52
-1.20534e-49
-1.29932e-49
-1.28477e-47
-1.29003e-47
-1.10056e-45
-9.92299e-46
-7.10426e-44
-6.94704e-44
-4.20206e-42
-4.49048e-42
-2.42005e-40
-2.5783e-40
-1.26785e-38
-1.31002e-38
-6.30325e-37
-6.1447e-37
-2.68373e-35
-2.60742e-35
-1.04584e-33
-8.97948e-34
-3.38367e-32
-2.75622e-32
-8.45122e-31
-6.67645e-31
-1.80936e-29
-1.45605e-29
-2.81328e-28
-4.7065e-28
-2.17934e-26
-4.48833e-26
-7.94469e-24
-5.73668e-24
-3.49652e-21
-1.06434e-21
-9.0769e-20
-8.80166e-20
-5.53038e-63
-1.24472e-61
-4.64045e-62
-8.10182e-62
-9.52504e-58
-4.29748e-59
-8.13586e-55
-3.17719e-56
-4.4658e-53
-2.6902e-53
-7.85558e-51
-6.01094e-51
-7.89127e-49
-6.49757e-49
-6.60943e-47
-5.80265e-47
-5.19412e-45
-4.59789e-45
-3.70214e-43
-3.22394e-43
-2.27998e-41
-2.03812e-41
-1.2844e-39
-1.10554e-39
-7.00813e-38
-5.34499e-38
-3.08859e-36
-2.32065e-36
-1.23824e-34
-7.96005e-35
-3.85465e-33
-2.43735e-33
-1.02473e-31
-6.21382e-32
-1.97647e-30
-1.87076e-30
-8.89839e-29
-1.35017e-28
-2.8938e-26
-1.64734e-26
-4.14285e-24
-1.93207e-24
-1.33405e-21
-3.04334e-22
-2.59232e-20
-3.9919e-20
-1.17992e-64
-2.16884e-63
-1.20663e-63
1.95564e-63
-4.16039e-59
-1.34082e-60
-3.08749e-56
-9.31678e-58
-1.85158e-54
-8.10361e-55
-3.33351e-52
-2.23762e-52
-3.82947e-50
-2.71558e-50
-3.76623e-48
-2.75268e-48
-3.24018e-46
-2.42453e-46
-2.56645e-44
-1.82681e-44
-1.75554e-42
-1.25333e-42
-1.04839e-40
-7.19652e-41
-6.00621e-39
-3.55267e-39
-2.69907e-37
-1.56521e-37
-1.06367e-35
-5.51512e-36
-3.35264e-34
-1.72408e-34
-1.228e-32
-5.23416e-33
-2.85221e-31
-3.03042e-31
-9.05681e-29
-3.72045e-29
-1.26624e-26
-4.5465e-27
-1.53781e-24
-5.09206e-25
-4.1861e-22
-7.37367e-23
-6.14568e-21
-1.39864e-20
6.14035e-66
-1.32082e-65
-2.12056e-62
7.59206e-63
-1.4399e-60
1.62389e-61
-9.07815e-58
-2.51328e-59
-5.67013e-56
-2.40518e-56
-1.16665e-53
-6.5456e-54
-1.52317e-51
-8.91669e-52
-1.70555e-49
-1.00681e-49
-1.59357e-47
-9.50926e-48
-1.38366e-45
-7.59805e-46
-1.03702e-43
-5.57511e-44
-6.49373e-42
-3.50124e-42
-3.78587e-40
-1.79208e-40
-1.76406e-38
-8.00902e-39
-6.94763e-37
-3.0692e-37
-5.1497e-35
-1.05302e-35
-6.16006e-34
-4.55746e-34
-9.82426e-32
-5.08399e-32
-3.1515e-29
-7.00054e-30
-3.87821e-27
-8.71038e-28
-4.39866e-25
-9.79433e-26
-1.06935e-22
-1.39702e-23
-1.15157e-21
-3.73495e-21
2.58276e-65
6.09015e-66
2.92164e-63
3.87215e-63
-7.05504e-61
1.69774e-61
-2.50411e-59
-7.93781e-61
-1.44596e-57
-4.91563e-58
-3.19169e-55
-1.34803e-55
-4.72992e-53
-1.97385e-53
-5.80211e-51
-2.43455e-51
-5.76024e-49
-2.62059e-49
-5.27369e-47
-2.33836e-47
-4.41813e-45
-1.8501e-45
-2.98676e-43
-1.26517e-43
-1.72682e-41
-6.75202e-42
-8.57652e-40
-2.97457e-40
-4.2189e-38
-1.26752e-38
-1.18649e-36
-4.54798e-37
-6.5622e-35
-3.33426e-35
-4.61603e-32
-5.35353e-33
-6.49284e-30
-7.94828e-31
-8.01075e-28
-1.0525e-28
-9.05371e-26
-1.24966e-26
-2.07979e-23
-1.85388e-24
-1.59568e-22
-7.11637e-22
1.71711e-65
4.3475e-66
3.12625e-63
1.21788e-63
-1.14558e-62
5.87944e-62
-1.98605e-60
1.18081e-60
-2.61768e-59
-4.41283e-60
-5.97626e-57
-1.62144e-57
-9.34863e-55
-2.81938e-55
-1.29395e-52
-3.89557e-53
-1.47681e-50
-4.57665e-51
-1.4792e-48
-4.85841e-49
-1.37521e-46
-4.29802e-47
-1.01955e-44
-2.86137e-45
-5.63524e-43
-1.72636e-43
-3.19293e-41
-8.535e-42
-3.35128e-39
-3.50541e-40
-4.0952e-38
-1.32391e-38
-2.51323e-35
-1.63483e-36
-5.22193e-33
-3.01664e-34
-7.7417e-31
-4.97127e-32
-1.01717e-28
-7.28653e-30
-1.21066e-26
-9.54146e-28
-2.70672e-24
-1.57417e-25
-1.54438e-23
-9.38829e-23
9.42818e-66
1.69608e-66
1.18991e-63
2.09467e-64
3.18885e-62
9.17594e-63
-9.49472e-62
2.19868e-61
-2.33955e-61
-1.28975e-62
-6.72124e-59
-9.40822e-60
-1.21813e-56
-1.82361e-57
-1.77653e-54
-3.00298e-55
-2.39699e-52
-4.59213e-53
-2.97719e-50
-5.49182e-51
-2.64532e-48
-4.94815e-49
-2.08119e-46
-4.18123e-47
-1.40694e-44
-2.70007e-45
-9.10515e-43
-1.58083e-43
-4.00218e-41
-7.03417e-42
-1.25513e-39
-5.40736e-40
-1.51918e-36
-1.2302e-37
-2.84583e-34
-2.62992e-35
-4.62648e-32
-5.00621e-33
-6.6481e-30
-8.56944e-31
-7.50298e-28
-1.73788e-28
-2.1006e-25
-9.99241e-27
-9.53583e-25
-8.84205e-24
3.17437e-66
2.05148e-69
2.2616e-64
3.73306e-68
6.24148e-63
4.12564e-67
-3.24445e-64
-1.01486e-68
-9.59509e-64
-7.98824e-66
-3.35655e-61
-1.03946e-62
-6.6428e-59
-2.75745e-60
-1.30351e-56
-5.98777e-58
-2.23219e-54
-1.03546e-55
-2.61974e-52
-1.55432e-53
-2.93614e-50
-2.12835e-51
-2.52744e-48
-2.05949e-49
-2.07076e-46
-1.851e-47