/*--------------------------------*- C++ -*----------------------------------*\
| =========                 |                                                 |
| \\      /  F ield         | OpenFOAM: The Open Source CFD Toolbox           |
|  \\    /   O peration     | Version:  v2012                                 |
|   \\  /    A nd           | Website:  www.openfoam.com                      |
|    \\/     M anipulation  |                                                 |
\*---------------------------------------------------------------------------*/
FoamFile
{
    version     2.0;
    format      ascii;
    class       volScalarField;
    location    "0.5";
    object      alpha.water;
}
// * * * * * * * * * * * * * * * * * * * * * * * * * * * * * * * * * * * * * //

dimensions      [0 0 0 0 0 0 0];


internalField   nonuniform List<scalar> 
2268
(
1
1
1
1
1
1
1
1
1
1
1
1
1
1
1
1
1
1
1
1
0.96391
0.930525
0.949733
1
1
1
1
1
1
1
1
1
1
1
1
1
1
1
1
1
1
1
1
0.99255
0.930533
0.994337
1
1
1
1
1
1
1
1
1
1
1
1
1
1
1
1
1
1
1
1
1
0.951875
0.994408
1
1
1
1
1
1
1
1
1
1
1
1
1
1
1
1
1
1
1
1
1
0.998518
0.998624
1
1
1
1
1
1
1
1
1
1
1
1
1
1
1
1
1
1
1
1
1
1
0.998665
1
1
1
1
1
1
1
1
1
1
1
1
1
1
1
1
1
1
1
1
1
1
0.998776
1
1
0.999999
0.999999
0.999999
0.999999
1
1
1
1
1
1
1
1
1
1
1
1
1
1
1
1
0.998788
1
0.999987
0.999965
0.999962
0.999971
0.999982
0.99999
0.999995
0.999997
0.999998
0.999999
1
1
1
1
1
1
1
1
1
1
1
0.998806
5.34011e-16
7.84783e-16
2.0529e-14
7.11865e-13
1.13201e-11
7.76168e-11
2.76935e-10
7.42623e-10
2.31387e-09
7.64558e-09
3.17344e-08
1.32447e-07
4.48321e-07
1.27314e-06
3.46247e-06
1.01379e-05
2.12005e-05
5.33085e-05
0.000121875
2.19222e-15
1.78535e-14
3.69702e-13
5.87301e-12
4.27016e-11
1.70405e-10
6.41915e-10
2.26505e-09
7.6311e-09
2.64151e-08
8.11374e-08
2.71416e-07
1.04741e-06
4.21692e-06
2.00779e-05
8.25401e-05
0.000117945
0.000121875
0.000261716
2.22045e-14
1.14983e-13
1.85239e-12
2.12067e-11
1.17611e-10
3.55132e-10
1.02734e-09
3.50696e-09
1.25676e-08
4.80356e-08
1.79714e-07
6.36515e-07
2.17188e-06
7.17188e-06
2.30258e-05
0.000156799
0.000649168
0.000907723
0.000961114
4.93237e-14
4.35038e-13
5.36882e-12
5.28683e-11
2.32747e-10
5.1711e-10
9.64975e-10
2.96851e-09
1.03339e-08
4.10085e-08
1.72509e-07
6.03021e-07
2.11521e-06
7.33108e-06
2.36576e-05
8.05755e-05
0.000962001
0.00339863
0.00302784
7.23048e-14
8.65235e-13
1.27235e-11
8.36585e-11
2.63468e-10
5.05734e-10
6.98731e-10
1.92286e-09
8.64465e-09
3.17422e-08
3.29441e-07
9.41018e-07
2.50484e-06
6.93343e-06
2.48553e-05
7.17757e-05
0.000432174
0.00434124
0.00664939
1.67083e-13
1.03623e-12
1.32347e-11
7.00875e-11
1.54625e-10
2.85499e-10
1.10357e-09
9.07518e-08
4.44609e-07
3.23454e-07
4.91412e-07
4.40097e-06
1.04617e-05
2.20543e-05
4.88844e-05
0.000183797
0.000989335
0.00434165
0.010101
7.60249e-13
4.41958e-12
1.0275e-11
4.81974e-11
1.17344e-10
1.75214e-10
1.29537e-09
1.51917e-08
7.57733e-08
4.93897e-06
2.99904e-05
3.55803e-05
2.7732e-05
3.82032e-05
0.00012812
0.000740813
0.00280463
0.0113643
0.0225918
7.77763e-13
1.65816e-12
5.63742e-12
9.26186e-13
-6.68185e-12
-5.96003e-11
1.05358e-09
1.07e-08
1.34529e-07
1.7006e-06
9.0442e-06
2.83227e-05
3.04821e-05
0.000107352
0.000738701
0.00406073
0.00947896
0.0247633
0.0534655
0.993691
0.978964
0.967912
0.972002
0.980676
0.989324
0.995796
0.999439
0.999897
0.999934
0.999963
0.999983
0.999994
0.999999
1
1
1
1
1
1
1
1
0.999667
0.430981
0.357978
0.322402
0.342107
0.381275
0.431397
0.491918
0.564652
0.643132
0.715356
0.7885
0.859658
0.92359
0.972895
0.9975
1
1
1
1
1
1
1
1
-2.04145e-10
-4.01861e-10
-2.18665e-09
-5.03602e-09
-8.03322e-09
-9.98708e-09
-9.28154e-09
-6.82908e-09
0.006793
0.033057
0.0716954
0.126804
0.208096
0.338282
0.540524
0.7623
0.965878
1
1
1
1
1
1
-4.77401e-10
-1.71231e-09
-1.18231e-08
-2.69832e-08
-4.20129e-08
-6.17481e-08
-9.6682e-08
-1.57583e-07
-2.25992e-07
-2.58992e-07
-2.36903e-07
-1.7588e-07
-1.06059e-07
-4.71921e-08
0.00035221
0.0340562
0.130773
0.345431
0.73276
0.999998
1
1
1
-6.65809e-10
-3.20242e-09
-1.87996e-08
-4.30902e-08
-6.39594e-08
-8.78889e-08
-1.25523e-07
-1.89612e-07
-2.66872e-07
-3.16076e-07
-3.13753e-07
-2.6815e-07
-2.03129e-07
-1.38926e-07
-4.29586e-11
3.61558e-08
8.70751e-07
8.13224e-06
0.0397124
0.190156
0.474977
0.781682
0.999999
-2.85174e-10
-1.67204e-09
-1.4178e-08
-3.40847e-08
-5.22449e-08
-6.83758e-08
-8.08754e-08
-8.88452e-08
-9.21113e-08
-9.10793e-08
-8.64937e-08
-7.92068e-08
-7.00026e-08
-5.95427e-08
-4.77954e-08
-3.04429e-09
-6.47912e-09
2.86362e-08
7.96934e-07
4.39098e-06
0.00441936
0.0536323
0.190153
-5.19902e-11
-1.7628e-10
-6.66149e-09
-1.69407e-08
-2.77187e-08
-3.76258e-08
-4.56651e-08
-5.13356e-08
-5.45544e-08
-5.55437e-08
-5.46941e-08
-5.24356e-08
-4.9113e-08
-4.49641e-08
-4.01486e-08
-3.42604e-08
-7.93657e-12
-1.35775e-09
-1.11586e-08
-8.70135e-09
7.95261e-09
1.37747e-06
4.52362e-06
-1.71944e-11
-1.70266e-11
-2.09826e-09
-5.99689e-09
-1.04426e-08
-1.46347e-08
-1.81065e-08
-2.06549e-08
-2.22506e-08
-2.29858e-08
-2.30203e-08
-2.2545e-08
-2.16683e-08
-2.04297e-08
-1.88653e-08
-1.70468e-08
-1.51116e-08
-3.8625e-09
-2.30636e-11
-7.69931e-11
-3.23365e-10
-2.44759e-08
-1.40062e-07
-4.38041e-12
-3.79565e-12
-5.05959e-10
-1.59569e-09
-2.89522e-09
-4.12297e-09
-5.12685e-09
-5.84991e-09
-6.27825e-09
-6.42978e-09
-6.34181e-09
-6.11412e-09
-5.76759e-09
-5.24822e-09
-4.53773e-09
-3.54488e-09
-2.5132e-09
-1.70548e-09
-4.75612e-10
-2.38624e-11
8.06779e-12
1.60788e-10
1.25186e-09
-7.22342e-13
-5.68468e-13
-9.3158e-11
-3.14398e-10
-5.80559e-10
-8.24638e-10
-1.01358e-09
-1.13662e-09
-1.18161e-09
-1.13897e-09
-9.88841e-10
-8.11715e-10
-6.26925e-10
-3.78198e-10
-4.53396e-11
4.1832e-10
1.77065e-09
2.08735e-09
2.08625e-09
2.07319e-09
3.09781e-09
5.8514e-09
6.78813e-09
-6.65263e-14
-5.7252e-14
-1.18002e-11
-4.21104e-11
-7.81519e-11
-1.09194e-10
-1.30452e-10
-1.39946e-10
-1.29426e-10
-8.93282e-11
6.66197e-29
1.14384e-10
1.91911e-10
2.73413e-10
4.38234e-10
8.88391e-10
1.36582e-09
1.4259e-09
1.22401e-09
1.1704e-09
1.50677e-09
3.1605e-09
7.19451e-09
-3.07186e-15
-9.45781e-15
-8.09175e-13
-3.22956e-12
-6.28418e-12
-8.66901e-12
-9.75777e-12
-8.8849e-12
-3.17842e-12
8.22359e-12
5.7585e-11
1.46285e-10
1.81727e-10
1.5669e-10
8.91738e-11
5.85652e-11
6.67835e-11
1.00089e-10
1.09006e-10
7.85188e-11
1.44414e-11
8.30859e-12
8.30688e-12
-5.08148e-16
-2.98558e-15
-2.50582e-14
-1.82179e-13
-4.7129e-13
-6.48678e-13
-5.78691e-13
-5.95431e-14
9.75106e-13
7.18359e-12
7.05818e-12
1.128e-11
3.06007e-11
2.38864e-11
1.15126e-11
3.28797e-12
1.59125e-12
1.63565e-12
2.13928e-12
3.47357e-12
5.69832e-12
8.35517e-12
1.06351e-11
-1.61204e-16
-1.03466e-15
-8.26075e-15
-4.83864e-14
-1.16253e-13
-1.40121e-13
-9.50724e-14
2.95465e-14
8.27367e-14
3.13457e-13
6.84773e-13
9.07195e-13
9.06464e-13
8.85638e-13
7.08195e-13
8.44803e-13
1.27348e-12
1.63764e-12
2.18089e-12
2.22476e-12
2.18075e-12
2.10777e-12
1.94808e-12
-4.3859e-17
-2.90019e-16
-2.14731e-15
-1.05015e-14
-2.29056e-14
-2.33149e-14
-1.11254e-14
2.40827e-16
1.22184e-14
6.29607e-14
1.02779e-13
1.10841e-13
1.06998e-13
8.22552e-14
4.99628e-14
3.72299e-14
3.8995e-14
4.20126e-14
4.3825e-14
4.09773e-14
4.24063e-14
5.32793e-14
1.15065e-13
-9.62733e-18
-6.20158e-17
-4.18193e-16
-1.74524e-15
-3.36542e-15
-2.76688e-15
-9.54582e-16
3.68857e-16
1.56592e-15
6.17466e-15
1.0702e-14
1.1373e-14
9.66835e-15
5.36582e-15
1.82921e-15
9.47373e-16
9.98318e-16
1.0932e-15
1.21979e-15
1.75113e-15
5.04973e-15
2.03212e-14
9.9264e-14
-1.57408e-18
-9.34845e-18
-5.5946e-17
-1.98934e-16
-3.27794e-16
-2.04401e-16
-5.06258e-17
2.31183e-17
1.34662e-16
4.62992e-16
6.7617e-16
6.80177e-16
5.18237e-16
2.41664e-16
6.70901e-17
3.06944e-17
3.22099e-17
3.87699e-17
8.5529e-17
4.97008e-16
3.58681e-15
2.01971e-14
1.73343e-13
-1.72521e-19
-8.89825e-19
-4.45829e-18
-1.29392e-17
-1.74612e-17
-7.95448e-18
1.36928e-19
2.07928e-18
7.94465e-18
1.99824e-17
2.81531e-17
2.85234e-17
2.28864e-17
1.24461e-17
4.15446e-18
1.47832e-18
1.65679e-18
4.30093e-18
3.44487e-17
3.51443e-16
3.13664e-15
2.68799e-14
3.15339e-13
-1.25543e-20
-5.84709e-20
-2.35987e-19
-5.85515e-19
-8.46919e-19
-5.70264e-19
-4.47766e-20
9.03813e-20
2.92844e-19
4.9541e-19
8.61101e-19
9.9211e-19
9.22878e-19
6.02565e-19
2.07639e-19
7.40583e-20
1.78608e-19
1.71154e-18
2.07965e-17
2.27557e-16
2.64186e-15
3.62064e-14
4.84134e-13
-1.32586e-21
-7.99932e-21
-3.79007e-20
-1.12693e-19
-2.06871e-19
-1.4508e-19
-1.08306e-20
5.63279e-21
7.97313e-21
9.04744e-21
2.04729e-20
2.825e-20
2.64724e-20
1.71583e-20
4.84816e-21
6.78892e-21
6.26345e-20
8.6526e-19
1.08501e-17
1.25215e-16
2.07185e-15
4.25515e-14
5.99972e-13
-1.80078e-22
-1.09225e-21
-5.43994e-21
-1.72337e-20
-3.44056e-20
-2.06114e-20
3.16146e-22
6.56874e-22
4.71371e-22
4.0449e-22
5.32882e-22
5.21276e-22
4.28988e-22
2.37752e-22
1.63146e-22
1.52772e-21
2.5756e-20
3.68133e-19
4.88671e-18
5.82336e-17
1.4035e-15
4.46736e-14
6.4172e-13
-1.23435e-23
-7.51735e-23
-3.92487e-22
-1.31719e-21
-2.78513e-21
2.12643e-22
4.09474e-22
5.62049e-23
3.42141e-23
2.49219e-23
1.63927e-23
7.44329e-24
1.20077e-24
1.69906e-24
2.54067e-23
5.31541e-22
8.91121e-21
1.40015e-19
1.93101e-18
2.31594e-17
8.08341e-16
3.77512e-14
5.80326e-13
-1.48556e-26
-3.57501e-26
-3.02419e-26
-3.78689e-42
9.08725e-24
4.14016e-22
6.41834e-23
1.21311e-24
5.82478e-25
6.34523e-25
6.01059e-25
3.47711e-25
7.29404e-26
3.64521e-25
7.99795e-24
1.53231e-22
2.853e-21
4.85025e-20
6.90756e-19
8.11219e-18
3.94807e-16
2.29942e-14
3.98016e-13
-1.23017e-29
-2.23617e-29
-1.64725e-29
-2.98163e-30
-6.93268e-32
1.9208e-29
4.23539e-29
5.23269e-28
1.67104e-27
1.30743e-27
5.55509e-28
3.75118e-28
2.90746e-27
8.18364e-26
1.89781e-24
4.17648e-23
8.45452e-22
1.5559e-20
2.29705e-19
2.58482e-18
1.61628e-16
1.31892e-14
2.72916e-13
-5.25483e-46
-7.95928e-43
-2.78785e-40
-2.3683e-38
1.18854e-36
2.03216e-34
7.30269e-32
9.0546e-31
3.70463e-30
7.68112e-30
1.12054e-29
2.95052e-29
6.89475e-28
1.78721e-26
4.524e-25
1.06512e-23
2.33823e-22
4.63452e-21
7.13618e-20
7.67303e-19
5.51016e-17
6.73356e-15
1.72562e-13
7.12898e-48
2.77759e-52
-2.77759e-52
-6.45656e-50
2.01886e-42
7.65462e-39
1.72058e-34
1.26849e-32
7.74404e-32
1.8028e-31
2.95186e-31
3.70687e-30
1.22964e-28
3.60822e-27
9.93274e-26
2.54405e-24
5.98756e-23
1.26126e-21
2.01541e-20
2.11834e-19
1.56708e-17
2.9183e-15
9.92795e-14
5.51676e-50
-3.87601e-49
-1.06714e-46
-4.11693e-49
7.02132e-45
9.12318e-42
3.95452e-37
6.87026e-35
4.84619e-34
1.33423e-33
1.49549e-32
6.38539e-31
2.12797e-29
6.77496e-28
2.03615e-26
5.62029e-25
1.39254e-23
3.04011e-22
4.93201e-21
5.20822e-20
3.72643e-18
1.10788e-15
5.22868e-14
2.88723e-51
6.10831e-50
-5.7675e-59
-2.15923e-48
1.30062e-44
5.55027e-42
3.65468e-40
1.67818e-38
8.95904e-37
4.39512e-35
2.32524e-33
9.05526e-32
3.36737e-30
1.17908e-28
3.81535e-27
1.11945e-25
2.8531e-24
6.23109e-23
9.94832e-22
1.0795e-20
7.16518e-19
3.80587e-16
2.46129e-14
1.03638e-52
8.69391e-52
1.63255e-52
8.2985e-52
6.50401e-46
3.65233e-43
3.99779e-41
2.02055e-39
1.13148e-37
6.30204e-36
2.75891e-34
1.17575e-32
4.88231e-31
1.86255e-29
6.33171e-28
1.93537e-26
4.94357e-25
1.04192e-23
1.58741e-22
1.74331e-21
9.93358e-20
1.19738e-16
1.02767e-14
3.30572e-54
1.18678e-54
-4.79677e-54
1.61972e-52
7.40168e-47
2.18245e-44
1.90275e-42
1.5866e-40
1.02367e-38
5.48412e-37
2.85347e-35
1.40462e-33
6.22681e-32
2.55895e-30
8.88238e-29
2.76633e-27
6.91503e-26
1.38044e-24
1.92855e-23
1.63669e-22
6.19905e-21
3.53304e-17
3.77579e-15
8.7489e-56
3.71556e-56
2.89557e-56
-1.93389e-52
5.22525e-48
1.30769e-45
1.33548e-43
1.02985e-41
7.26329e-40
4.7694e-38
2.77501e-36
1.41574e-34
6.69147e-33
2.88895e-31
1.00019e-29
3.11604e-28
7.51199e-27
1.41791e-25
1.51571e-24
1.1168e-23
1.70383e-21
9.89867e-18
1.21002e-15
1.60424e-57
5.4307e-58
6.78907e-58
4.58656e-55
2.28958e-49
5.96142e-47
6.56387e-45
5.93543e-43
4.763e-41
3.36789e-39
2.16127e-37
1.18197e-35
5.74752e-34
2.53885e-32
8.74992e-31
2.69214e-29
6.37978e-28
1.00228e-26
4.60897e-26
3.12511e-24
5.4653e-22
2.57425e-18
3.33104e-16
2.7829e-59
-4.62512e-59
-1.52704e-58
1.36443e-56
6.44022e-51
2.18575e-48
2.70267e-46
2.7796e-44
2.48529e-42
1.88474e-40
1.315e-38
7.64282e-37
3.79629e-35
1.69789e-33
6.01199e-32
1.84993e-30
3.81019e-29
2.56999e-28
6.55522e-27
8.26507e-25
1.40486e-22
5.88552e-19
7.66782e-17
8.83951e-62
-1.82332e-58
-3.79288e-57
-1.40613e-57
1.97278e-52
6.31124e-50
8.77417e-48
1.00973e-45
9.68772e-44
7.78184e-42
5.79179e-40
3.70682e-38
1.91343e-36
8.61163e-35
3.29915e-33
9.85989e-32
1.4203e-30
9.18306e-30
1.04688e-27
1.49756e-25
2.59499e-23
1.07899e-19
1.40319e-17
-1.58829e-61
-9.44192e-59
-4.00629e-57
-4.18571e-74
4.11146e-54
1.29577e-51
1.92865e-49
2.40876e-47
2.64374e-45
2.38548e-43
1.91483e-41
1.33903e-39
7.24868e-38
3.18612e-36
1.36101e-34
3.29086e-33
1.46203e-32
6.44586e-31
1.07432e-28
1.66124e-26
3.04632e-24
1.38283e-20
1.91317e-18
-1.13921e-61
-3.01366e-59
-1.40017e-57
-2.75434e-56
3.33259e-56
1.52907e-53
2.73688e-51
3.83987e-49
4.54973e-47
4.93547e-45
4.49023e-43
3.01012e-41
1.84836e-39
9.28154e-38
3.65931e-36
6.28875e-35
2.47565e-34
3.1974e-32
6.23484e-30
1.07646e-27
3.9051e-25
1.12591e-21
1.83753e-19
-4.48113e-62
-5.2531e-60
-2.20136e-58
-5.15062e-57
5.70062e-59
8.83181e-56
1.74133e-53
2.88259e-51
4.55914e-49
5.61892e-47
5.08451e-45
4.41189e-43
2.8728e-41
1.74021e-39
5.97711e-38
2.98157e-37
1.08343e-35
2.59592e-33
5.92165e-31
5.95352e-28
2.38439e-24
8.44811e-23
1.13268e-20
-5.50802e-65
-9.46232e-64
-9.94161e-63
0
7.12472e-64
9.30277e-59
2.5672e-56
5.76288e-54
1.01046e-51
1.53207e-49
2.18578e-47
2.12189e-45
1.92239e-43
1.21537e-41
2.16405e-40
2.85786e-39
7.88178e-37
2.42973e-34
6.8764e-32
4.99453e-28
6.71241e-25
1.18684e-23
3.5321e-22
-1.57692e-65
-1.87664e-64
-1.69313e-63
-3.62561e-64
1.02141e-68
8.56373e-63
2.81933e-60
9.02986e-58
2.44672e-55
4.78166e-53
8.73035e-51
1.18738e-48
9.4396e-47
9.38279e-46
4.79652e-45
2.52113e-42
1.37652e-39
6.93638e-37
3.47174e-34
2.52367e-29
6.46104e-26
1.09583e-24
3.07642e-24
-4.61538e-68
-4.36097e-67
-5.68e-66
-6.23812e-65
-4.95006e-75
9.77301e-72
5.51238e-66
2.89439e-63
1.02015e-60
3.49386e-58
8.77101e-56
1.54469e-53
5.43163e-52
4.60875e-51
3.4485e-49
2.67199e-46
2.41082e-43
2.0386e-40
1.63353e-37
1.01218e-33
4.82475e-29
6.19459e-27
2.74015e-26
-4.56097e-86
-1.55967e-85
-1.03332e-84
0
-2.02239e-99
-5.18365e-84
-2.65987e-84
-3.10472e-82
4.80109e-77
1.63505e-73
9.19388e-70
1.98533e-66
2.03603e-63
2.42665e-61
1.18328e-59
-1.28302e-56
-1.3838e-53
-1.25783e-50
-7.77142e-48
1.57034e-37
5.98732e-32
2.84922e-29
1.97993e-28
-1.16928e-86
-2.40296e-86
-1.8705e-85
0
-4.95079e-101
-5.19613e-101
-1.93308e-101
1.61076e-99
-7.91106e-96
-2.56395e-92
8.91748e-87
-1.06978e-83
-5.30487e-81
1.71928e-75
-3.49577e-73
-1.15769e-69
1.5695e-64
-1.33202e-62
-3.83534e-59
2.63411e-53
1.9529e-42
1.54333e-37
5.24775e-36
0.999336
0.999365
0.999982
0.849965
0.999895
0.999768
0.999998
0.999983
1
0.999999
0.999999
0.999998
0.999999
0.999999
0.999999
0.999999
0.999999
0.999999
0.999999
0.999998
0.33607
0.452118
0.589891
0.727738
1.08369e-05
0.00151664
0.0105929
0.0308838
-3.80078e-07
-6.57367e-07
-1.078e-06
6.50395e-07
3.54127e-09
5.65407e-09
6.31818e-09
-3.43973e-09
7.02652e-09
9.38705e-09
1.01282e-08
8.62699e-09
1.01027e-08
1.01258e-08
1.01274e-08
1.0077e-08
8.3083e-12
8.30687e-12
8.32371e-12
8.32467e-12
1.22369e-11
1.31955e-11
1.41297e-11
1.50011e-11
1.76235e-12
1.70243e-12
1.7374e-12
1.83982e-12
2.07822e-13
3.08777e-13
4.70714e-13
6.89976e-13
2.2966e-13
3.98418e-13
6.8634e-13
1.15155e-12
4.46947e-13
8.26623e-13
1.45166e-12
2.61587e-12
8.49187e-13
1.61769e-12
2.87362e-12
5.43359e-12
1.31845e-12
2.50614e-12
4.42985e-12
8.58102e-12
1.63818e-12
3.08107e-12
5.48311e-12
1.01746e-11
1.75091e-12
3.27159e-12
5.89278e-12
1.01811e-11
1.58665e-12
2.93118e-12
5.66754e-12
9.36334e-12
1.12528e-12
2.21268e-12
4.9852e-12
9.32603e-12
8.22373e-13
1.8152e-12
4.90836e-12
1.17585e-11
5.77059e-13
1.49793e-12
5.02827e-12
1.36308e-11
3.8326e-13
1.17922e-12
4.34572e-12
1.27175e-11
2.3508e-13
8.09145e-13
2.70427e-12
5.75928e-12
1.26492e-13
4.54316e-13
1.31124e-12
2.46559e-12
5.87208e-14
2.08249e-13
5.10318e-13
8.36205e-13
2.34159e-14
7.65871e-14
1.53166e-13
2.25066e-13
7.9061e-15
2.26785e-14
3.74298e-14
4.5989e-14
2.22103e-15
5.42821e-15
7.41175e-15
5.38501e-15
5.01675e-16
1.03782e-15
1.29573e-15
9.14081e-16
8.8533e-17
1.71262e-16
2.22337e-16
2.75888e-16
1.21974e-17
2.49717e-17
3.75508e-17
1.04359e-16
1.31536e-18
2.96484e-18
4.2143e-18
2.84667e-17
9.76294e-20
2.45246e-19
3.89704e-19
3.94903e-18
3.96666e-21
1.09498e-20
1.18603e-20
2.47227e-19
3.98147e-23
1.56339e-22
3.67596e-23
-2.92943e-21
1.95223e-28
5.46789e-29
1.15306e-26
-5.93447e-23
5.07039e-30
4.3234e-37
2.04155e-34
-2.16065e-27
7.08264e-38
7.72547e-46
9.02595e-51
-6.01482e-34
0.0351005
-6.70763e-08
-5.89229e-07
-9.30607e-08
-5.08635e-09
1.04135e-11
1.10125e-09
2.08494e-09
1.11333e-08
1.73144e-08
8.20143e-08
2.48875e-07
6.93027e-05
0.00148081
0.0436067
0.15696
0.207586
0.213305
0.335879
0.467675
0.000276645
1.63027e-05
7.47049e-07
2.29122e-08
4.90947e-10
1.47822e-09
3.25898e-09
5.91323e-09
0.00142352
0.0374094
0.102592
0.200775
0.40203
0.698477
0.883948
0.897627
0.863419
0.818561
0.989455
0.574509
0.0700722
2.05677e-05
1.91144e-06
2.14714e-07
2.8214e-08
7.4737e-09
0.0245539
0.338979
0.723477
0.850768
0.93138
0.999872
0.999904
0.999909
0.999911
0.999911
0.940795
0.999998
0.999271
0.861221
0.505092
0.165381
0.0688055
0.0809619
0.189493
0.583989
0.94713
0.998947
0.999733
0.999881
0.999907
0.999909
0.999911
0.999911
0.999911
0.859122
0.999996
0.99998
0.999621
0.992608
0.909628
0.823389
0.833178
0.902605
0.986824
0.998946
0.999719
0.99984
0.999856
0.999868
0.999906
0.999909
0.999911
0.999911
0.682916
0.876075
0.999392
0.997555
0.995867
0.994827
0.990902
0.988633
0.992259
0.993147
0.995668
0.978868
0.961001
0.9729
0.999705
0.999883
0.999863
0.999838
0.999909
0.638116
0.0968368
0.233992
0.400179
0.544846
0.65278
0.698144
0.693064
0.662747
0.585535
0.451308
0.330798
0.327035
0.37845
0.522793
0.774669
0.976238
0.999787
0.999893
0.638087
4.31814e-06
1.66974e-05
0.000134594
0.00600345
0.0216101
0.0365033
0.0363049
0.0292065
0.0145746
0.00214864
0.00050277
0.00185013
0.00873214
0.0918829
0.352727
0.885334
0.998737
0.999663
0.553624
-1.69553e-07
-4.41396e-07
-5.03577e-07
-6.6347e-07
7.10371e-07
6.31304e-06
1.41588e-05
1.77312e-05
1.60891e-05
2.47783e-05
0.000161192
0.000579137
0.00185255
0.0192152
0.511149
0.929039
0.993569
0.688128
0.293181
1.90811e-09
1.25798e-10
7.68902e-10
5.39985e-09
3.97262e-08
1.90321e-07
5.10854e-07
8.94285e-07
1.37938e-06
6.03909e-06
2.98947e-05
0.000121139
0.000759847
0.0272474
0.547826
0.923996
0.827424
0.163589
0.0569157
1.93985e-09
1.1154e-11
1.98621e-11
9.14504e-11
9.49137e-10
6.56253e-09
2.50415e-08
6.24379e-08
1.57034e-07
1.38171e-06
5.29081e-06
4.53879e-05
0.000376649
0.00215576
0.305771
0.863685
0.620237
0.0569012
0.0562457
8.4527e-12
9.29387e-12
1.05082e-11
1.4893e-11
4.70798e-11
3.15784e-10
1.54467e-09
5.13974e-09
1.89519e-08
1.49654e-07
1.13437e-06
3.73437e-05
0.000115715
0.000648723
0.0945875
0.636899
0.667519
0.0562155
0.0562312
1.64123e-11
1.8351e-11
1.79419e-11
1.4859e-11
1.70604e-11
5.40379e-11
2.07327e-10
6.68956e-10
2.36919e-09
1.87058e-08
2.50144e-07
1.15247e-05
4.06706e-05
0.000119259
0.0124315
0.418594
0.690136
0.334502
0.0562457
2.32698e-12
4.09069e-12
7.39512e-12
1.30636e-11
2.41843e-11
4.69022e-11
7.4386e-11
2.27302e-10
4.69108e-10
2.33295e-09
2.71142e-08
4.2597e-07
4.44968e-06
9.70389e-06
3.31655e-05
0.117306
0.690136
0.614477
0.0651426
1.38576e-12
4.89472e-12
1.39921e-11
2.58144e-11
4.08662e-11
7.05493e-11
1.23105e-10
1.81661e-10
2.484e-10
4.68661e-10
4.22236e-09
7.41929e-08
5.45199e-07
7.93853e-07
4.71105e-08
1.8147e-08
0.250375
0.625323
0.33398
2.63218e-12
9.99307e-12
7.31976e-11
2.22832e-10
2.02377e-10
1.68871e-10
1.88224e-10
2.16761e-10
2.2558e-10
2.54382e-10
8.5063e-10
1.41189e-08
9.15684e-08
2.74527e-08
7.4658e-09
8.98197e-09
0.109978
0.625323
0.461348
6.27357e-12
2.08257e-11
1.05095e-10
7.71888e-10
1.04345e-09
5.74606e-10
2.86085e-10
2.36086e-10
2.3596e-10
2.40449e-10
1.91988e-09
6.54602e-09
2.45047e-08
5.51951e-09
3.14651e-09
4.28378e-09
0.119175
0.374877
0.276093
1.21762e-11
8.16986e-11
9.46395e-11
5.22065e-10
2.60963e-09
6.30822e-10
2.38707e-10
2.3684e-10
2.47191e-10
2.45659e-10
2.89477e-09
1.02478e-08
1.02803e-08
4.64144e-27
-6.94267e-10
-7.21401e-23
0.120765
0.175939
0.199977
1.73437e-11
1.61055e-10
1.89298e-10
1.89622e-10
1.52483e-09
9.91047e-09
5.28902e-09
6.87067e-10
2.50107e-10
2.51898e-10
2.33018e-09
8.39716e-09
2.20705e-09
0
-1.147e-07
-1.23791e-23
0.00166993
0.175734
0.261082
2.07279e-11
2.19622e-10
3.475e-10
1.94307e-10
2.7051e-09
2.69496e-08
2.99409e-08
7.25625e-09
3.01366e-10
2.55318e-10
7.1194e-10
9.20805e-10
7.49264e-10
7.97805e-10
1.50878e-08
6.27222e-08
3.70545e-06
0.172969
0.261093
3.41539e-11
1.95755e-10
9.04179e-10
1.99992e-10
9.50373e-09
3.06458e-08
3.07346e-08
2.04071e-08
1.19699e-09
2.59797e-10
2.72983e-10
3.26466e-10
4.93143e-10
2.77707e-08
3.44785e-06
2.92355e-06
1.22219e-05
0.0357108
0.260914
9.85443e-11
3.08742e-10
1.31354e-09
2.10903e-10
1.22762e-08
3.07281e-08
3.07196e-08
1.82519e-08
8.44514e-10
2.76419e-10
2.87596e-10
5.77872e-07
2.28797e-07
8.395e-08
7.37412e-06
1.74143e-05
6.04379e-05
0.000108914
0.256181
1.5118e-10
2.9534e-10
8.61881e-10
3.49809e-09
7.73619e-09
2.02674e-08
2.19855e-08
4.77181e-09
4.62446e-10
2.87582e-10
4.97377e-07
3.01543e-06
1.25426e-06
7.35415e-07
5.87077e-05
0.000120005
0.000114232
0.000103635
0.225232
1.42783e-10
3.52854e-10
3.11999e-10
5.06788e-09
6.00352e-09
3.59076e-09
2.17199e-09
5.68005e-10
5.70695e-10
4.29227e-10
1.54525e-06
2.98267e-06
8.14991e-07
1.67013e-06
2.04215e-05
0.0106256
0.00520939
0.000116298
0.11853
5.63647e-11
2.79438e-10
1.84776e-10
5.31621e-09
5.56387e-09
1.55542e-09
1.67823e-09
4.61223e-07
1.04135e-05
2.43611e-06
4.51524e-06
2.55654e-06
5.93311e-07
7.75875e-07
0.0486391
0.128136
0.0469263
0.00030778
0.0949408
3.06949e-11
1.31968e-10
1.41118e-10
5.31568e-09
4.99587e-09
5.15343e-11
1.73988e-06
4.0208e-06
2.0871e-05
1.91786e-05
3.81456e-06
6.59876e-07
4.68911e-07
0.00495773
0.14246
0.147785
0.0953809
0.00157925
0.144949
1.5547e-11
6.24482e-11
1.24963e-10
2.28916e-09
3.27109e-09
2.46264e-11
1.64218e-05
1.81561e-05
2.15945e-05
2.07208e-05
3.91587e-06
4.641e-07
4.60505e-07
0.0399939
0.147791
0.148218
0.115943
0.0100527
0.146013
6.87092e-12
3.02202e-11
2.09416e-10
1.86243e-10
6.01269e-10
1.80584e-11
1.74782e-05
4.23102e-05
2.20404e-05
5.75802e-06
3.31313e-06
4.58914e-07
4.48681e-07
0.0295013
0.148239
0.148962
0.109829
0.0140466
0.145612
2.79712e-12
8.99911e-12
1.09664e-10
1.34066e-10
2.12399e-10
1.50849e-11
9.69973e-06
4.23102e-05
1.13669e-05
7.52602e-07
5.09264e-07
4.48809e-07
4.43968e-07
0.000827562
0.132774
0.150167
0.0998395
0.0179345
0.0729664
9.71925e-13
3.59953e-12
1.38503e-11
5.05291e-11
2.22461e-10
1.27606e-11
5.39656e-07
4.23102e-05
1.04389e-06
5.29231e-07
4.55601e-07
4.47505e-07
4.44322e-07
4.44218e-07
0.115509
0.15179
0.0933867
0.0204202
0.0227163
3.40095e-13
1.89155e-12
7.10048e-12
2.5674e-11
1.47024e-10
1.15028e-11
-3.06438e-12
4.64327e-06
6.30409e-05
0.000126356
4.94673e-07
4.56168e-07
4.44126e-07
5.00229e-07
0.114575
0.153371
0.081997
0.0187922
0.0216452
1.87599e-13
1.6165e-12
5.52599e-12
1.80021e-11
2.31972e-11
1.14934e-11
1.16259e-11
2.81957e-09
0.00027383
0.000308036
0.000296017
3.6498e-05
5.00464e-07
3.45748e-06
0.130516
0.154246
0.0663879
0.0180019
0.0905552
1.67838e-13
1.95563e-12
6.30156e-12
1.15532e-11
1.1494e-11
1.14944e-11
1.15201e-11
1.66063e-10
0.000166264
0.000311943
0.000312239
0.000173404
3.45899e-06
0.00481007
0.147267
0.154442
0.0603599
0.017759
0.114349
1.66096e-13
2.47104e-12
9.30847e-12
1.38845e-11
1.23577e-11
1.14938e-11
1.41274e-07
3.52185e-08
3.27484e-08
0.000279948
0.000312186
0.00019813
7.59291e-06
0.0115246
0.152476
0.154442
0.060718
0.0177505
0.115336
1.21138e-13
2.47711e-12
1.0476e-11
2.24333e-11
7.00643e-11
1.16138e-11
1.36392e-07
4.27552e-07
5.84044e-08
3.18875e-05
0.000201943
9.98246e-05
1.52938e-06
2.30218e-07
0.140011
0.154442
0.0679644
0.0177505
0.116102
3.93438e-14
1.53194e-12
1.03007e-11
2.50836e-11
1.85827e-10
1.55161e-08
1.07523e-08
4.27703e-08
4.31166e-08
4.22756e-08
2.50105e-06
3.38167e-06
1.85862e-06
9.68251e-08
0.0833657
0.154153
0.11072
0.0178665
0.116201
4.25564e-15
5.00805e-13
6.9692e-12
2.59622e-11
1.39769e-10
5.22533e-09
6.67487e-09
6.69265e-09
4.21101e-08
3.30135e-09
1.34292e-07
4.66739e-07
5.61599e-07
4.22998e-08
3.50633e-09
0.134208
0.140814
0.0223088
0.116201
4.7601e-17
8.20722e-14
2.92749e-12
1.74271e-11
2.94521e-11
2.95236e-11
2.68016e-09
1.2443e-08
1.77487e-09
1.89043e-09
8.44441e-08
2.56957e-07
2.66003e-07
4.99707e-08
0
0.00832821
0.131037
0.0440749
0.116162
6.31551e-19
3.62816e-15
3.78136e-13
4.50753e-12
1.84539e-11
5.01035e-11
7.38752e-10
7.06006e-09
4.29706e-10
2.30696e-08
3.50841e-08
2.7525e-08
2.85252e-08
1.51641e-08
-2.27534e-09
-7.21205e-07
0.0262955
0.0416397
0.0965152
3.60812e-22
2.65014e-18
1.13234e-14
3.14651e-13
4.37546e-12
5.95617e-11
4.90872e-10
7.02842e-22
4.28103e-10
6.28358e-18
1.67736e-13
2.68603e-14
3.70577e-11
2.83935e-10
-2.48399e-09
-6.33174e-09
1.83358e-06
0.0292215
0.0270619
-2.83407e-27
1.05435e-25
1.12055e-18
1.4859e-14
6.51482e-13
3.13501e-12
7.02842e-22
7.00123e-22
-1.62739e-28
2.14814e-22
1.89583e-12
1.93235e-15
4.64122e-09
8.53979e-09
-2.05545e-12
-3.67946e-08
4.47317e-08
0.00794903
0.00587639
-2.69733e-33
-1.85043e-34
6.60042e-25
1.84773e-19
3.57524e-17
6.1436e-32
7.96596e-18
5.21381e-21
-5.20014e-47
2.70696e-16
8.36742e-14
1.83694e-15
0
2.45564e-08
8.28277e-08
4.81665e-08
1.43221e-07
3.6561e-05
0.00154423
)
;

boundaryField
{
    leftWall
    {
        type            zeroGradient;
    }
    rightWall
    {
        type            zeroGradient;
    }
    lowerWall
    {
        type            zeroGradient;
    }
    atmosphere
    {
        type            inletOutlet;
        inletValue      uniform 0;
        value           nonuniform List<scalar> 
46
(
0
0
0
0
0
0
0
0
0
0
0
0
0
0
0
0
0
0
0
0
0
0
0
0
0
0
0
0
0
0
0
0
0
0
0
0
0
0
0
0
0
8.28277e-08
4.81665e-08
1.43221e-07
3.6561e-05
0.00154423
)
;
    }
    defaultFaces
    {
        type            empty;
    }
}


// ************************************************************************* //
