/*--------------------------------*- C++ -*----------------------------------*\
| =========                 |                                                 |
| \\      /  F ield         | OpenFOAM: The Open Source CFD Toolbox           |
|  \\    /   O peration     | Version:  v2012                                 |
|   \\  /    A nd           | Website:  www.openfoam.com                      |
|    \\/     M anipulation  |                                                 |
\*---------------------------------------------------------------------------*/
FoamFile
{
    version     2.0;
    format      ascii;
    class       volScalarField;
    location    "0.5";
    object      epsilon;
}
// * * * * * * * * * * * * * * * * * * * * * * * * * * * * * * * * * * * * * //

dimensions      [0 2 -3 0 0 0 0];


internalField   nonuniform List<scalar> 
2268
(
0.0324927
0.0987079
0.183121
0.259644
0.323389
0.377023
0.423143
0.464401
0.502045
0.536437
0.567284
0.593787
0.614655
0.627917
0.629942
0.622938
0.603729
0.566932
0.511599
0.440208
0.360975
0.284617
0.229383
0.0402294
0.0646265
0.0998206
0.133882
0.160489
0.181999
0.200501
0.217179
0.232649
0.247136
0.260604
0.272869
0.283659
0.292662
0.299596
0.306832
0.31445
0.321839
0.328792
0.333024
0.326915
0.27155
0.257068
0.0488793
0.0609407
0.0877081
0.111734
0.130668
0.145897
0.158861
0.170516
0.181378
0.191658
0.201391
0.210527
0.219016
0.226875
0.234351
0.242775
0.25318
0.266414
0.283456
0.303319
0.318238
0.302593
0.388184
0.052553
0.0631791
0.0843709
0.103328
0.118586
0.131008
0.141668
0.151314
0.16035
0.168947
0.177155
0.184991
0.192504
0.199855
0.207462
0.216378
0.227797
0.242934
0.262936
0.287368
0.311268
0.329215
0.532621
0.0579643
0.0668987
0.0837897
0.0989826
0.111585
0.122224
0.131633
0.140305
0.148493
0.156303
0.163785
0.170991
0.178037
0.185165
0.192867
0.202096
0.214051
0.230024
0.251176
0.277599
0.307759
0.354568
0.68334
0.0628857
0.0710496
0.0841943
0.0960904
0.106507
0.115879
0.12457
0.132784
0.140605
0.14807
0.155217
0.162129
0.168967
0.176028
0.183838
0.193299
0.205572
0.22195
0.243654
0.271456
0.307158
0.378444
0.823062
0.0659783
0.074623
0.0845222
0.0935533
0.10225
0.110784
0.119119
0.127177
0.134895
0.14225
0.149275
0.156073
0.162844
0.169923
0.177854
0.187496
0.199966
0.216543
0.23856
0.267522
0.308216
0.400262
0.966556
0.0664568
0.0768618
0.0840131
0.0908642
0.0984626
0.10658
0.114822
0.122902
0.130654
0.138017
0.145024
0.1518
0.158577
0.165716
0.173769
0.18356
0.196158
0.212829
0.235027
0.264884
0.309353
0.416516
1.17055
0.283245
0.725002
1.29166
2.10715
3.18225
4.40102
5.59379
6.61629
7.37249
7.82314
7.98904
7.93861
7.75792
7.51072
7.20074
6.76853
6.14033
5.06339
1.63642
0.480857
1.14112
1.95714
2.62007
3.06258
3.35515
3.55808
3.68081
3.71585
3.66223
3.53959
3.38936
3.25965
3.1903
3.20547
3.33517
3.69764
3.95072
1.95995
0.912645
1.38368
2.04749
2.52568
2.86712
3.16761
3.43313
3.62412
3.72044
3.72718
3.667
3.56753
3.45005
3.34719
3.31476
3.38519
3.54737
3.56203
2.36519
1.2504
1.55342
2.13702
2.59913
3.01552
3.442
3.84458
4.17826
4.431
4.60469
4.71114
4.7621
4.74807
4.6612
4.52459
4.19143
3.33788
2.81796
2.51241
1.40326
1.69334
2.28142
2.79355
3.31071
3.87966
4.45491
4.99135
5.47656
5.8923
6.22758
6.47875
6.60928
6.5665
6.34221
5.42265
3.34433
2.35066
2.60246
1.38321
1.78906
2.4262
3.01606
3.63905
4.358
5.12491
5.89321
6.65028
7.33915
7.8934
8.26939
8.37692
8.07658
7.21819
4.985
2.50662
2.20709
2.69167
1.2217
1.8004
2.49915
3.18318
3.90504
4.75899
5.69517
6.66137
7.66091
8.58957
9.25592
9.53387
9.2073
7.97002
5.65454
2.11974
1.26294
1.954
2.7753
1.09356
1.62389
2.39832
3.19234
3.98984
4.92538
5.93665
6.93384
7.94843
8.89425
9.39917
9.15409
7.56594
4.30885
1.20009
0.683067
0.732444
1.24396
2.87284
0.0636659
0.0766627
0.0817405
0.0871694
0.0941102
0.102008
0.110236
0.11837
0.126177
0.13356
0.140552
0.147306
0.154088
0.16129
0.169472
0.17943
0.192174
0.208916
0.231265
0.2619
0.308124
0.401409
0.697628
0.0594168
0.0684734
0.0753659
0.0827281
0.0906468
0.099024
0.107507
0.115799
0.123711
0.131135
0.138149
0.144938
0.151797
0.159124
0.167478
0.177654
0.190584
0.207407
0.22976
0.25995
0.302786
0.373211
0.51346
0.0821104
0.0732011
0.0771702
0.0837336
0.0912221
0.0993518
0.107689
0.116015
0.124604
0.131946
0.138753
0.145464
0.1524
0.159944
0.168586
0.179061
0.192163
0.209238
0.231817
0.261011
0.299698
0.354822
0.436464
0.301136
0.16463
0.147736
0.145448
0.141457
0.138139
0.13641
0.135371
0.13307
0.134901
0.140029
0.146115
0.152752
0.160141
0.169527
0.181944
0.197256
0.216863
0.239805
0.266805
0.301585
0.34774
0.405646
0.428728
0.216443
0.197047
0.187211
0.178821
0.173011
0.169904
0.168976
0.169602
0.171942
0.175663
0.180191
0.184935
0.188811
0.189307
0.185667
0.198052
0.22004
0.247175
0.277353
0.31258
0.35372
0.399857
0.41219
0.222686
0.204973
0.197903
0.192776
0.189417
0.188017
0.188477
0.190595
0.19425
0.199229
0.20523
0.211844
0.218453
0.224326
0.230497
0.240552
0.251356
0.251566
0.27878
0.31792
0.363393
0.40827
0.379185
0.215453
0.199254
0.195439
0.193876
0.193689
0.194937
0.197668
0.201882
0.207572
0.214696
0.223146
0.232704
0.243001
0.253594
0.264527
0.276494
0.289276
0.302378
0.321954
0.339325
0.366039
0.408647
0.359737
0.207133
0.18995
0.187213
0.1879
0.190248
0.193951
0.198986
0.205407
0.213295
0.222722
0.233699
0.246126
0.25974
0.274157
0.289119
0.304687
0.32087
0.337964
0.357787
0.380303
0.409175
0.445275
0.350432
0.200441
0.180469
0.177169
0.1787
0.182533
0.187958
0.194789
0.203035
0.212792
0.224177
0.237263
0.252019
0.268258
0.285655
0.303882
0.322783
0.342295
0.362454
0.383803
0.406926
0.432652
0.461161
0.346397
0.194355
0.171371
0.166874
0.168334
0.172728
0.179056
0.186977
0.196425
0.207469
0.220226
0.234796
0.251191
0.269287
0.288818
0.309455
0.330915
0.352981
0.37551
0.398619
0.42265
0.447707
0.473383
0.342763
0.187926
0.162629
0.156876
0.157792
0.162105
0.168651
0.176982
0.186971
0.198651
0.212126
0.2275
0.244815
0.263999
0.284849
0.307062
0.330311
0.354279
0.378705
0.403483
0.428647
0.454103
0.479585
0.338117
0.181091
0.154232
0.147369
0.147546
0.151392
0.157666
0.165862
0.175815
0.18753
0.201096
0.216622
0.234172
0.253721
0.275129
0.298148
0.322464
0.347738
0.373657
0.399993
0.426599
0.453295
0.47985
0.332094
0.174045
0.14618
0.138433
0.137841
0.141017
0.146711
0.15439
0.163868
0.175132
0.188264
0.203379
0.220563
0.239838
0.26113
0.284265
0.308987
0.334994
0.361979
0.389668
0.417822
0.446194
0.474513
0.323934
0.166823
0.138477
0.130087
0.128798
0.13125
0.136195
0.143117
0.151832
0.162305
0.174618
0.188891
0.205238
0.223728
0.244355
0.267032
0.291589
0.317802
0.345415
0.374168
0.403788
0.433984
0.46443
0.313684
0.159541
0.131169
0.122356
0.120475
0.122227
0.126387
0.132446
0.140219
0.149702
0.16096
0.174116
0.189312
0.206664
0.226237
0.248034
0.271988
0.297977
0.32583
0.35534
0.386252
0.418258
0.450994
0.301976
0.152388
0.124334
0.115273
0.11291
0.114025
0.117425
0.122613
0.129408
0.137802
0.147888
0.159802
0.173689
0.189713
0.208012
0.228678
0.251754
0.277232
0.305047
0.335074
0.367106
0.400852
0.435933
0.289666
0.14559
0.118072
0.108885
0.106131
0.106683
0.109382
0.113745
0.119595
0.126924
0.135826
0.146463
0.159018
0.173672
0.190629
0.210074
0.232161
0.256998
0.28464
0.315061
0.348125
0.383575
0.421032
0.277617
0.139384
0.112491
0.103244
0.100163
0.10022
0.102289
0.105899
0.110877
0.117216
0.125012
0.134434
0.145703
0.159051
0.17472
0.192984
0.214106
0.238316
0.265793
0.29662
0.330744
0.367951
0.407862
0.266596
0.133995
0.107702
0.0984033
0.0950293
0.0946432
0.0961484
0.0990849
0.103283
0.108733
0.115536
0.123866
0.133962
0.146116
0.160626
0.177834
0.198111
0.221813
0.249245
0.280611
0.315944
0.355071
0.397604
0.257226
0.129625
0.103808
0.0944156
0.0907484
0.0899494
0.0909455
0.0932833
0.0967924
0.101463
0.107396
0.114772
0.123849
0.134949
0.148458
0.16478
0.184384
0.207757
0.235338
0.267457
0.304242
0.345557
0.390987
0.249986
0.126442
0.100896
0.0913225
0.0873314
0.0861273
0.0866522
0.0884536
0.0913579
0.0953512
0.100532
0.10709
0.115297
0.125508
0.138164
0.153776
0.172895
0.196138
0.224091
0.25722
0.295755
0.339597
0.388293
0.245232
0.12458
0.0990332
0.0891506
0.0847768
0.0831543
0.0832284
0.0845411
0.0869102
0.0903148
0.0948499
0.100709
0.10818
0.117648
0.129604
0.144648
0.163455
0.186756
0.215296
0.24969
0.290284
0.337024
0.389413
0.243197
0.124134
0.0982586
0.0879056
0.083067
0.0809946
0.080623
0.0814797
0.0833684
0.0862571
0.0902341
0.0954945
0.102339
0.111183
0.122566
0.137163
0.155779
0.17929
0.208589
0.244466
0.287399
0.337391
0.39392
0.244027
0.12516
0.0985814
0.0875689
0.0821651
0.0795978
0.0787734
0.0791943
0.0806438
0.0830734
0.0865615
0.0913013
0.0976042
0.105911
0.11681
0.13105
0.149545
0.173344
0.203517
0.241023
0.286502
0.340043
0.401126
0.247784
0.127673
0.0999766
0.0880947
0.082014
0.0788988
0.0776068
0.0776037
0.078644
0.0806577
0.0837088
0.0879852
0.0938047
0.101631
0.112097
0.126023
0.144431
0.168517
0.199565
0.238759
0.286888
0.344174
0.410142
0.254473
0.131644
0.102384
0.0894094
0.082536
0.0788185
0.0770421
0.0766221
0.0772761
0.0789066
0.0815586
0.0854105
0.0907821
0.0981551
0.1082
0.121807
0.140101
0.164427
0.196264
0.237023
0.28777
0.348865
0.41992
0.264059
0.137
0.105706
0.0914138
0.0836361
0.0792665
0.076992
0.0761625
0.0764498
0.0777231
0.0800036
0.0834554
0.0883953
0.0953163
0.10492
0.118156
0.136246
0.160682
0.19314
0.235272
0.288384
0.353097
0.429254
0.276477
0.143625
0.109814
0.0939868
0.0852052
0.080145
0.0773664
0.076139
0.0760798
0.0770188
0.0789489
0.082015
0.0865248
0.0929748
0.102088
0.11486
0.132598
0.156927
0.189722
0.23289
0.288025
0.356009
0.436872
0.291616
0.151361
0.114557
0.0969928
0.0871263
0.0813526
0.0780757
0.0764696
0.0760879
0.076716
0.0783141
0.0810031
0.0850747
0.09102
0.0995709
0.111753
0.128937
0.152865
0.185596
0.229302
0.285895
0.356581
0.44162
0.309352
0.160031
0.119767
0.10029
0.0892808
0.0827897
0.0790345
0.0770786
0.0764044
0.076748
0.0780331
0.0803517
0.0839731
0.0893725
0.0972752
0.108716
0.125105
0.148268
0.180425
0.224004
0.281266
0.353795
0.442169
0.329529
0.169453
0.12528
0.103738
0.0915543
0.0843628
0.080165
0.077899
0.0769694
0.0770595
0.0780535
0.0800108
0.0831714
0.0879833
0.0951489
0.105688
0.121014
0.142997
0.173976
0.216609
0.273514
0.34672
0.43723
0.352023
0.179471
0.13094
0.107206
0.0938413
0.0859884
0.0813994
0.0788742
0.0777338
0.0776066
0.0783361
0.0799463
0.0826418
0.0868326
0.09318
0.102662
0.116656
0.137025
0.166161
0.2069
0.2622
0.334585
0.425612
0.376842
0.189961
0.136603
0.110572
0.096048
0.0875951
0.0826825
0.0799592
0.0786593
0.0783563
0.0788533
0.0801379
0.0823747
0.085926
0.0913946
0.099689
0.112109
0.130447
0.157069
0.194897
0.247166
0.316911
0.406361
0.404237
0.200839
0.142134
0.113722
0.0980915
0.0891249
0.0839728
0.0811224
0.07972
0.0792866
0.0795879
0.0805765
0.0823747
0.0852894
0.0898499
0.0968698
0.107531
0.12349
0.146992
0.180917
0.228656
0.293688
0.378988
0.434904
0.212078
0.147398
0.116542
0.0998969
0.0905333
0.0852442
0.0823473
0.0809035
0.0803875
0.0805336
0.0812631
0.0826571
0.0849628
0.0886253
0.0943431
0.103146
0.116497
0.13642
0.165607
0.20741
0.265585
0.343788
0.470239
0.223739
0.152235
0.1189
0.101391
0.0917889
0.0864882
0.0836351
0.0822139
0.0816633
0.0816958
0.0822085
0.0832453
0.0849939
0.0878104
0.0922661
0.0992148
0.109885
0.125999
0.149912
0.184703
0.234106
0.302214
0.512565
0.23589
0.156391
0.120622
0.102495
0.0928739
0.0877176
0.0850095
0.0836758
0.0831366
0.0830957
0.083436
0.0841714
0.085435
0.0874954
0.0907941
0.0960013
0.10409
0.116434
0.134946
0.162211
0.201579
0.257114
0.565894
0.24841
0.159392
0.121435
0.103113
0.0937901
0.0889749
0.0865246
0.0853423
0.0848555
0.0847771
0.0849882
0.0854816
0.0863442
0.0877653
0.0900648
0.093735
0.0994973
0.108375
0.121794
0.141718
0.1708
0.212521
0.638413
0.260765
0.160319
0.120918
0.103141
0.0945733
0.0903462
0.0882763
0.0873049
0.086904
0.0868176
0.0869375
0.0872461
0.0877945
0.088706
0.0901938
0.0925923
0.0963958
0.102306
0.111297
0.124703
0.144346
0.172738
0.750631
0.270753
0.157298
0.118429
0.102491
0.0953295
0.0919858
0.0904194
0.0897074
0.0894155
0.0893419
0.0894018
0.089576
0.0898912
0.090419
0.0912873
0.0926998
0.0949607
0.0985038
0.103924
0.112022
0.123871
0.140952
0.970908
0.269233
0.146583
0.113182
0.101225
0.0963085
0.0941541
0.0931902
0.0927653
0.0925922
0.0925436
0.0925668
0.0926479
0.0927984
0.0930532
0.0934761
0.0941702
0.0952914
0.0970634
0.0997907
0.103873
0.109822
0.118318
1.64655
0.218794
0.122206
0.104911
0.0998713
0.0980233
0.0972647
0.096938
0.0967968
0.0967392
0.0967215
0.0967259
0.0967474
0.0967888
0.09686
0.0969794
0.0971771
0.0974994
0.098013
0.0988089
0.100003
0.101738
0.104183
1.46877
1.14199
0.890296
0.807512
0.666059
0.698018
0.69899
0.706212
0.500575
0.542577
0.576922
0.610288
0.44818
0.481374
0.513841
0.546561
0.432392
0.458717
0.485836
0.513803
0.437028
0.459926
0.482656
0.505131
0.437413
0.462799
0.488227
0.510921
0.470261
0.486301
0.499623
0.5142
0.482827
0.498455
0.514579
0.532053
0.49242
0.506072
0.519983
0.53413
0.498286
0.511459
0.524709
0.537974
0.499202
0.512647
0.526082
0.539488
0.495163
0.509392
0.523602
0.537809
0.486808
0.502167
0.517553
0.533001
0.475373
0.492089
0.508925
0.525912
0.462466
0.480672
0.499124
0.517835
0.449802
0.469567
0.489718
0.510242
0.43894
0.460308
0.482201
0.504571
0.431104
0.454135
0.477816
0.502064
0.427097
0.451898
0.477463
0.503669
0.42729
0.454034
0.48165
0.509981
0.431658
0.460576
0.49049
0.521214
0.439823
0.471191
0.503716
0.537185
0.45111
0.485221
0.5207
0.55732
0.464595
0.501723
0.540491
0.580666
0.479147
0.519512
0.561849
0.605929
0.493445
0.537185
0.583285
0.631521
0.505951
0.553124
0.603076
0.655614
0.515286
0.565796
0.619525
0.676335
0.519923
0.57351
0.630818
0.691771
0.518264
0.574457
0.634916
0.69962
0.508727
0.566791
0.629701
0.697482
0.48987
0.548734
0.613041
0.682855
0.460625
0.518803
0.582995
0.653309
0.420699
0.476235
0.538254
0.606924
0.37113
0.421659
0.478904
0.543117
0.314851
0.357887
0.407438
0.463875
0.256832
0.290367
0.329604
0.375018
0.203194
0.226478
0.254051
0.286382
0.159191
0.173153
0.189741
0.209267
0.127235
0.134011
0.142005
0.151324
0.106689
0.10857
0.110755
0.11324
0.75507
1.01084
1.86216
2.65118
3.51916
4.44963
5.27895
5.67141
5.31259
3.77507
1.68034
0.844949
0.583879
0.500746
0.48966
0.50898
0.622058
0.986775
2.89728
0.714735
0.713956
0.841847
1.79247
2.3753
2.81089
3.02189
2.65342
1.16752
0.557964
0.517905
0.48767
0.466607
0.459989
0.46893
0.500531
0.605563
0.964445
2.93659
0.663413
0.696656
0.714986
0.726068
0.782894
0.86311
0.812781
0.653378
0.539674
0.503065
0.481014
0.46461
0.457339
0.463374
0.484875
0.527844
0.630206
0.957368
2.9477
0.605325
0.661764
0.695178
0.709046
0.709052
0.689857
0.649742
0.596671
0.548656
0.512324
0.485275
0.469519
0.47017
0.492692
0.536451
0.595782
0.690042
0.961299
2.88167
0.564152
0.61711
0.658076
0.680598
0.68215
0.665877
0.635318
0.595632
0.553305
0.515637
0.48908
0.480793
0.502164
0.559406
0.637232
0.703779
0.762975
0.963134
2.83294
0.544469
0.583301
0.615823
0.637885
0.644569
0.635347
0.613234
0.581826
0.545712
0.512286
0.490883
0.497364
0.567173
0.703169
0.822364
0.863656
0.843425
0.962513
2.7406
0.547007
0.576338
0.598398
0.613225
0.618277
0.61208
0.595468
0.570539
0.540829
0.512322
0.498904
0.552105
0.797804
1.07402
1.15597
1.07234
0.92951
0.97327
2.59375
0.546834
0.576119
0.598567
0.61487
0.620617
0.615071
0.601386
0.582277
0.560841
0.533819
0.533389
0.698526
1.26677
1.52089
1.49826
1.22833
0.998297
1.01684
2.44864
0.56259
0.596221
0.628354
0.651616
0.654584
0.653407
0.666994
0.72896
0.965251
1.50226
2.54923
3.8777
2.76763
1.93277
1.54284
1.20209
1.03489
1.12018
2.23674
0.558138
0.587413
0.619098
0.657175
0.704009
0.766473
0.86534
1.03847
1.33802
1.8608
2.71279
3.29009
2.65073
1.61112
1.20966
1.09467
1.09775
1.32504
2.15541
0.560157
0.587168
0.615467
0.650336
0.698891
0.770697
0.883211
1.07084
1.39585
1.87859
2.42489
2.72467
2.49011
1.37372
1.12445
1.12947
1.2271
1.55296
1.98824
0.561925
0.590215
0.620525
0.657986
0.710185
0.788556
0.911996
1.11331
1.43411
1.84264
2.15723
2.19956
2.15488
1.48663
1.20712
1.24161
1.36442
1.75235
2.05614
0.561708
0.592776
0.626636
0.668303
0.725453
0.809582
0.937792
1.13386
1.41938
1.74416
1.93767
1.87955
1.96311
2.21113
1.32856
1.3364
1.4418
1.81856
2.50394
0.559111
0.593693
0.631388
0.676781
0.736934
0.821996
0.945366
1.12124
1.35311
1.59587
1.72425
1.68024
1.86076
2.7699
1.4728
1.39865
1.47272
1.83327
2.52969
0.554734
0.593266
0.634776
0.683142
0.744243
0.826108
0.938027
1.08673
1.26612
1.4372
1.52322
1.52305
1.73535
2.39661
2.16996
1.39687
1.39883
1.79923
2.30233
0.549674
0.592409
0.637695
0.68857
0.749524
0.826308
0.924539
1.04583
1.18028
1.29786
1.35938
1.39942
1.63896
2.19239
2.11343
1.25406
1.18669
1.70386
2.27596
0.545234
0.592254
0.641246
0.694437
0.754998
0.826647
0.912146
1.01004
1.11001
1.19143
1.24113
1.31524
1.59701
2.16747
2.03127
1.14802
1.10242
1.64135
2.27405
0.542745
0.594014
0.646595
0.702059
0.762473
0.829962
0.90531
0.985534
1.06158
1.12108
1.16825
1.27356
1.61062
2.25993
2.07059
1.17854
1.08836
1.6823
2.30951
0.543437
0.598932
0.655041
0.712869
0.773643
0.83834
0.906519
0.97469
1.03577
1.08423
1.1368
1.27735
1.69437
2.51005
2.81208
2.08802
1.33698
1.93561
2.58112
0.548354
0.608239
0.668062
0.728613
0.790507
0.853913
0.91766
0.978359
1.03119
1.07678
1.14337
1.33467
1.88101
2.98538
3.7507
3.32094
2.59469
2.49307
2.90372
0.558264
0.623054
0.687239
0.751376
0.815625
0.879501
0.941305
0.998009
1.04738
1.09686
1.18962
1.46391
2.19502
3.56118
4.62654
4.27
4.08959
3.57584
3.42686
0.573586
0.644236
0.714046
0.783376
0.852025
0.918833
0.981466
1.03719
1.08675
1.1468
1.2847
1.67464
2.58875
4.05529
5.04067
4.50231
3.76205
3.74084
3.53293
0.594324
0.672216
0.74955
0.826515
0.902668
0.976052
1.04336
1.10165
1.15463
1.23086
1.42118
1.90775
2.84154
3.93817
3.8343
2.72933
2.63077
4.29763
3.75946
0.620018
0.706836
0.79405
0.881762
0.969454
1.0543
1.13163
1.19714
1.25557
1.34271
1.55297
2.01469
2.67158
3.04066
1.06612
1.03917
2.14625
3.84704
4.19525
0.649733
0.747241
0.846786
0.948538
1.05204
1.15369
1.24707
1.3248
1.38745
1.46311
1.63362
1.98912
2.68046
1.31344
0.79981
0.922147
1.47577
2.6774
4.56447
0.68208
0.791886
0.90592
1.02447
1.1472
1.26981
1.38393
1.47738
1.54089
1.58468
1.67256
1.99387
2.01309
0.731835
0.670569
0.784142
1.14173
2.2089
4.7394
0.715282
0.838646
0.968756
1.10581
1.24939
1.39441
1.52987
1.63993
1.7041
1.71243
1.70618
2.01977
1.05354
0.571166
0.576993
0.717465
1.10818
2.31918
4.85439
0.747253
0.884998
1.03214
1.18832
1.35242
1.51807
1.67142
1.79481
1.86092
1.84331
1.77765
1.94592
0.90819
0.51466
0.537206
0.699374
1.14804
2.49436
4.77508
0.775612
0.928086
1.0928
1.26817
1.4514
1.63392
1.79882
1.9265
1.99521
1.96799
1.86614
1.86755
1.14866
0.517615
0.531691
0.707026
1.22679
3.51804
4.7964
0.798298
0.964691
1.14727
1.34212
1.54343
1.7396
1.90951
2.03001
2.09036
2.05366
1.92374
1.83999
1.25267
0.568253
0.543784
0.730828
1.35347
4.79473
6.30269
0.81271
0.992112
1.19153
1.40689
1.62675
1.83604
2.00814
2.11245
2.14025
2.07389
1.92865
1.81421
1.23521
0.572743
0.56158
0.756243
1.40669
6.13536
8.63674
0.815997
1.00677
1.22139
1.45749
1.69884
1.92521
2.10454
2.19423
2.17496
2.0687
1.89711
1.76532
1.1717
0.574901
0.584708
0.787883
1.41786
6.85478
8.83906
0.805084
1.00467
1.23207
1.48645
1.75394
2.00607
2.20621
2.30162
2.25668
2.11599
1.91377
1.73065
1.09329
0.599966
0.623838
0.840597
1.49059
7.4405
8.93066
0.776784
0.981361
1.21727
1.48514
1.77994
2.06886
2.31108
2.44944
2.42838
2.27128
2.04224
1.79189
1.09603
0.658676
0.702079
0.939434
1.68567
7.58946
8.93387
0.728214
0.932354
1.17049
1.44475
1.75734
2.08892
2.39454
2.61568
2.68655
2.57275
2.3349
2.01994
1.45411
0.817309
0.852613
1.12525
2.10593
7.38947
8.8703
0.657673
0.854092
1.08597
1.35581
1.66943
2.02971
2.40317
2.73502
2.95043
2.98427
2.82523
2.49795
2.11607
1.24967
1.1181
1.48553
2.87709
6.84298
8.76497
0.566093
0.745518
0.96051
1.21264
1.50862
1.86184
2.27126
2.70485
3.09446
3.34351
3.37785
3.15577
2.80607
2.43381
1.75845
2.19143
3.83501
7.07064
8.66707
0.458921
0.61058
0.796212
1.01597
1.27415
1.58357
1.96928
2.42852
2.94448
3.43796
3.76415
3.79934
3.57363
3.37177
3.33339
3.58555
5.85822
9.65383
8.7987
0.347364
0.461132
0.604425
0.776865
0.979523
1.21999
1.52026
1.90933
2.40696
3.01289
3.64762
4.10576
4.21709
4.18297
4.75827
6.71265
9.42436
15.6254
10.5499
0.246576
0.317619
0.409485
0.522432
0.655986
0.812145
1.00139
1.25196
1.59779
2.09142
2.76221
3.54724
4.24385
4.68347
5.47424
8.37973
14.2196
24.4737
18.6329
0.169078
0.202412
0.245276
0.297926
0.359887
0.431045
0.514386
0.621022
0.773394
1.0143
1.41267
2.05312
3.00911
4.38788
6.13559
9.60255
20.8237
32.6943
24.4217
0.11784
0.125909
0.135562
0.146547
0.158464
0.171016
0.184477
0.200376
0.222023
0.255961
0.314176
0.421303
0.650895
1.49495
6.57572
11.0233
21.1415
34.3998
27.9207
)
;

boundaryField
{
    leftWall
    {
        lowReCorrection 0;
        blending        stepwise;
        n               2;
        type            epsilonWallFunction;
        value           nonuniform List<scalar> 
50
(
0.0324927
0.0402294
0.0488793
0.052553
0.0579643
0.0628857
0.0659783
0.0664568
0.0636659
0.0594168
0.0821104
0.301136
0.428728
0.41219
0.379185
0.359737
0.350432
0.346397
0.342763
0.338117
0.332094
0.323934
0.313684
0.301976
0.289666
0.277617
0.266596
0.257226
0.249986
0.245232
0.243197
0.244027
0.247784
0.254473
0.264059
0.276477
0.291616
0.309352
0.329529
0.352023
0.376842
0.404237
0.434904
0.470239
0.512565
0.565894
0.638413
0.750631
0.970908
1.64655
)
;
    }
    rightWall
    {
        lowReCorrection 0;
        blending        stepwise;
        n               2;
        type            epsilonWallFunction;
        value           nonuniform List<scalar> 
50
(
1.63642
1.95995
2.36519
2.51241
2.60246
2.69167
2.7753
2.87284
2.89728
2.93659
2.9477
2.88167
2.83294
2.7406
2.59375
2.44864
2.23674
2.15541
1.98824
2.05614
2.50394
2.52969
2.30233
2.27596
2.27405
2.30951
2.58112
2.90372
3.42686
3.53293
3.75946
4.19525
4.56447
4.7394
4.85439
4.77508
4.7964
6.30269
8.63674
8.83906
8.93066
8.93387
8.8703
8.76497
8.66707
8.7987
10.5499
18.6329
24.4217
27.9207
)
;
    }
    lowerWall
    {
        lowReCorrection 0;
        blending        stepwise;
        n               2;
        type            epsilonWallFunction;
        value           nonuniform List<scalar> 
62
(
0.0324927
0.0987079
0.183121
0.259644
0.323389
0.377023
0.423143
0.464401
0.502045
0.536437
0.567284
0.593787
0.614655
0.627917
0.629942
0.622938
0.603729
0.566932
0.511599
0.440208
0.360975
0.284617
0.229383
0.229383
0.257068
0.388184
0.532621
0.68334
0.823062
0.966556
1.17055
1.46877
1.14199
0.890296
0.807512
0.283245
0.480857
0.912645
1.2504
1.40326
1.38321
1.2217
1.09356
0.283245
0.725002
1.29166
2.10715
3.18225
4.40102
5.59379
6.61629
7.37249
7.82314
7.98904
7.93861
7.75792
7.51072
7.20074
6.76853
6.14033
5.06339
1.63642
)
;
    }
    atmosphere
    {
        type            inletOutlet;
        inletValue      uniform 0.1;
        value           nonuniform List<scalar> 
46
(
0.1
0.1
0.1
0.1
0.1
0.1
0.1
0.1
0.1
0.1
0.1
0.1
0.1
0.1
0.1
0.1
0.1
0.1
0.1
0.1
0.1
0.1
0.1
0.1
0.1
0.1
0.1
0.1
0.1
0.1
0.1
0.1
0.1
0.1
0.1
0.1
0.1
0.1
0.1
0.1
0.1
6.57572
11.0233
21.1415
34.3998
27.9207
)
;
    }
    defaultFaces
    {
        type            empty;
    }
}


// ************************************************************************* //
