/*--------------------------------*- C++ -*----------------------------------*\
| =========                 |                                                 |
| \\      /  F ield         | OpenFOAM: The Open Source CFD Toolbox           |
|  \\    /   O peration     | Version:  v2012                                 |
|   \\  /    A nd           | Website:  www.openfoam.com                      |
|    \\/     M anipulation  |                                                 |
\*---------------------------------------------------------------------------*/
FoamFile
{
    version     2.0;
    format      ascii;
    class       volScalarField;
    location    "0.5";
    object      nut;
}
// * * * * * * * * * * * * * * * * * * * * * * * * * * * * * * * * * * * * * //

dimensions      [0 2 -1 0 0 0 0];


internalField   nonuniform List<scalar> 
2268
(
6.28271e-05
6.0335e-05
7.39532e-05
8.29822e-05
8.91174e-05
9.37366e-05
9.7349e-05
0.000100361
0.000102955
0.000105215
0.000107164
0.000108787
0.000110036
0.000110821
0.000110942
0.000110519
0.000109346
0.000107034
0.000103363
9.82095e-05
9.1859e-05
8.4747e-05
7.90074e-05
0.000121835
0.000373386
0.000545781
0.000654076
0.000727886
0.000782549
0.000825306
0.000860115
0.000889125
0.000913356
0.000933226
0.000948816
0.00095995
0.000966054
0.000965257
0.00094407
0.00090148
0.000839002
0.000761853
0.00067993
0.000607523
0.000522706
0.000222701
0.000129969
0.000603911
0.000901021
0.00111145
0.00127535
0.00140844
0.00151924
0.00161299
0.00169265
0.00175977
0.0018151
0.00185889
0.0018908
0.00190937
0.00191036
0.00187845
0.0018043
0.00168304
0.00151615
0.00131957
0.00112258
0.000910383
0.000255036
0.000132867
0.000722026
0.00110026
0.00139697
0.00164578
0.0018593
0.00204429
0.00220488
0.00234351
0.00246167
0.00256029
0.0026398
0.00269978
0.00273804
0.0027486
0.00271612
0.00262638
0.00246826
0.00223718
0.00194613
0.00162291
0.00122505
0.000283293
0.000136971
0.000749371
0.00118766
0.00155439
0.00188021
0.00217183
0.00243144
0.00266044
0.00286012
0.00303178
0.00317659
0.00329532
0.00338757
0.00345062
0.00347726
0.00345192
0.00335769
0.00317898
0.00290583
0.0025435
0.00210333
0.00149879
0.000307629
0.000140458
0.000732707
0.00119855
0.00161914
0.00201432
0.00238049
0.00271259
0.00300834
0.00326775
0.00349208
0.00368301
0.00384178
0.00396818
0.0040591
0.00410641
0.00409421
0.004004
0.0038169
0.00351815
0.0031028
0.00255686
0.00174599
0.000327467
0.000142463
0.000690663
0.00115832
0.00161952
0.00207728
0.0025133
0.00291355
0.0032718
0.00358707
0.00386097
0.00409588
0.0042937
0.00445449
0.00457484
0.00464583
0.0046514
0.00457202
0.00438611
0.00407451
0.00362118
0.00298446
0.00198118
0.000345571
0.000142505
0.00062954
0.0010859
0.00158
0.00209424
0.0025935
0.00305482
0.00346877
0.00383393
0.00415251
0.00442781
0.00466241
0.00485672
0.00500699
0.00510349
0.00513038
0.0050675
0.00489066
0.00457697
0.00410061
0.00339739
0.00223983
0.000368619
9.31745e-05
0.000120116
0.00014297
0.000168687
0.000194681
0.000217598
0.000235809
0.000248889
0.000257024
0.000260774
0.000260976
0.000258698
0.00025514
0.000251402
0.000247956
0.000244133
0.000240188
0.000233403
0.000313327
0.000326527
0.000774076
0.000850406
0.000903162
0.00097216
0.00106489
0.0011767
0.00129479
0.00140048
0.00147187
0.00148924
0.00144055
0.00133309
0.0012005
0.00108073
0.000995021
0.00093682
0.000840626
0.000557766
0.000400082
0.00120109
0.00138809
0.00155514
0.00179167
0.00209117
0.00240615
0.0026884
0.00290124
0.00301585
0.00300909
0.0028627
0.00257404
0.00218034
0.00176149
0.00138938
0.00108619
0.000818261
0.000553205
0.000445186
0.00155538
0.00187819
0.00217867
0.00255837
0.00297959
0.00337175
0.00368834
0.00390819
0.00401921
0.00401046
0.00386515
0.00356057
0.00309514
0.00252465
0.00189611
0.00121057
0.000743305
0.000553637
0.000462995
0.0018364
0.00229472
0.00269826
0.00314988
0.0036036
0.0039914
0.00428085
0.00447244
0.00457367
0.00458577
0.00449378
0.00425952
0.00384749
0.00328488
0.00253259
0.0015243
0.000709982
0.000558855
0.000456392
0.00202475
0.0026029
0.00307567
0.00354991
0.00399008
0.00433795
0.00457299
0.00471548
0.00479199
0.00481443
0.0047664
0.0045894
0.00420283
0.00359502
0.00276293
0.00194496
0.000775234
0.000565466
0.000434333
0.00207622
0.00277463
0.00330149
0.00377636
0.00418519
0.00447838
0.00463707
0.00469372
0.00469758
0.00468356
0.00462939
0.00443962
0.0039568
0.00314671
0.00255218
0.00260087
0.00138961
0.000570895
0.000407126
0.00188221
0.00276696
0.00336289
0.00383939
0.00421501
0.004448
0.00450576
0.00441036
0.00423055
0.00407297
0.00393933
0.0036535
0.00297194
0.00256541
0.00324105
0.00348853
0.00249716
0.000577456
0.000140177
0.000536578
0.000974276
0.00150343
0.00208305
0.00265805
0.00319467
0.00367951
0.00411044
0.00449016
0.00482318
0.00511312
0.00536087
0.0055623
0.0057063
0.00577459
0.00574579
0.0055941
0.00529297
0.00480644
0.00406164
0.00289721
0.00113449
0.000137186
0.000407437
0.000838557
0.00142347
0.00206718
0.00270135
0.00329206
0.00382783
0.00430845
0.00473597
0.00511664
0.00545537
0.00575404
0.00600901
0.0062089
0.00633272
0.00635547
0.00624713
0.005985
0.00553263
0.00482853
0.00378365
0.00235594
0.000157824
0.000426164
0.000855418
0.00143615
0.00207673
0.00270877
0.00329784
0.00383944
0.00435985
0.00481956
0.00522703
0.00559999
0.00594065
0.00624132
0.00648251
0.00664231
0.00670098
0.00664015
0.00644565
0.00607862
0.00548819
0.00464249
0.00357569
0.000244408
0.00106991
0.0018199
0.00251623
0.00314887
0.00372425
0.00422227
0.0045975
0.00473905
0.00496073
0.00529296
0.00563564
0.00596061
0.00625223
0.00650185
0.00669863
0.00678905
0.00677676
0.00665279
0.00638043
0.00592892
0.00529937
0.00454931
0.000266236
0.00152725
0.00255834
0.00337771
0.00406984
0.00469715
0.00526257
0.00575721
0.00617829
0.00656613
0.0069218
0.00722664
0.00745637
0.00756067
0.0074172
0.00686422
0.00682236
0.00676931
0.0066419
0.00640057
0.0060565
0.00561281
0.00511092
0.000261781
0.00170988
0.00295367
0.00393138
0.00474625
0.005468
0.00611467
0.00669076
0.00719963
0.00764784
0.00803426
0.00835094
0.00858301
0.00870558
0.00868818
0.00854394
0.00838741
0.00800643
0.00683623
0.00642052
0.00603245
0.00560593
0.00521371
0.000255326
0.00178103
0.00318272
0.00429805
0.00523477
0.00605128
0.00677225
0.00740978
0.00797117
0.00846108
0.00888038
0.00922607
0.00949142
0.00966701
0.00974566
0.00973246
0.00963255
0.00937708
0.00886611
0.00827837
0.00711964
0.00580215
0.00526168
0.000251252
0.00180929
0.00331898
0.00455767
0.00560279
0.00650337
0.00728823
0.00797558
0.00857752
0.00910187
0.00955263
0.00993058
0.010234
0.01046
0.0106065
0.0106734
0.0106554
0.0105284
0.0102693
0.00989352
0.00931656
0.0086359
0.00803892
0.000249129
0.00181298
0.00340688
0.00475256
0.00588945
0.00686063
0.00769836
0.00842607
0.00906049
0.0096131
0.010091
0.0104979
0.0108351
0.0111027
0.0113004
0.0114278
0.0114823
0.0114561
0.0113413
0.0111361
0.0108272
0.0104427
0.0100151
0.000248093
0.00181173
0.00347393
0.00490339
0.00611318
0.00714094
0.00802099
0.00878072
0.00944072
0.0100157
0.0105153
0.0109456
0.0113099
0.0116099
0.0118466
0.0120204
0.0121309
0.0121763
0.0121542
0.0120631
0.0119021
0.0116792
0.0114002
0.000247108
0.00181624
0.00352646
0.00501626
0.0062809
0.00735232
0.00826545
0.00905019
0.00972998
0.010322
0.0108382
0.0112863
0.0116709
0.0119951
0.0122605
0.0124686
0.01262
0.0127151
0.0127537
0.0127355
0.0126614
0.0125341
0.0123558
0.000245957
0.00182129
0.00356027
0.00509021
0.00639476
0.0074991
0.00843781
0.00924204
0.00993718
0.0105423
0.0110708
0.0115318
0.011931
0.0122723
0.0125579
0.0127899
0.0129695
0.0130977
0.0131753
0.0132027
0.0131806
0.0131107
0.0129943
0.000244463
0.00181868
0.00357316
0.0051275
0.00645717
0.00758488
0.00854367
0.00936338
0.0100708
0.010686
0.0112239
0.0116942
0.0121036
0.0124563
0.0127553
0.0130027
0.0132001
0.0133489
0.0134501
0.0135044
0.0135125
0.0134755
0.0133947
0.000242366
0.00180626
0.00356447
0.00513118
0.00647612
0.00761878
0.00859029
0.00942157
0.0101393
0.010763
0.0113082
0.0117855
0.012202
0.0125621
0.0128691
0.0131253
0.0133325
0.0134922
0.0136057
0.0136738
0.0136973
0.0136771
0.0136143
0.000239688
0.00178466
0.00353629
0.00510559
0.00645745
0.00760853
0.00858838
0.00942736
0.0101519
0.0107827
0.0113344
0.0118174
0.0122389
0.0126036
0.0129148
0.0131749
0.0133856
0.0135488
0.0136659
0.0137383
0.0137669
0.0137525
0.0136964
0.000236577
0.00175566
0.00349222
0.00505629
0.0064083
0.00756236
0.00854651
0.00939028
0.0101197
0.0107553
0.0113121
0.0118001
0.0122256
0.0125932
0.0129059
0.013166
0.0133756
0.0135364
0.0136507
0.0137201
0.0137463
0.0137304
0.0136737
0.00023324
0.00172144
0.00343645
0.00498926
0.00633608
0.00748863
0.00847349
0.00931932
0.0100516
0.0106906
0.011251
0.0117428
0.0121716
0.0125409
0.0128533
0.0131108
0.0133155
0.0134696
0.0135758
0.0136369
0.0136554
0.0136334
0.0135723
0.000229899
0.00168416
0.00337308
0.00491026
0.00624788
0.00739534
0.00837778
0.00922303
0.00995605
0.0105968
0.0111596
0.0116538
0.0120848
0.012455
0.0127657
0.0130186
0.0132156
0.0133595
0.0134539
0.013503
0.0135107
0.0134803
0.0134139
0.000226772
0.00164578
0.00330581
0.00482447
0.00615012
0.00728977
0.00826715
0.00910925
0.00984064
0.010481
0.0110445
0.01154
0.0119719
0.0123418
0.0126499
0.0128967
0.013084
0.0132153
0.0132956
0.0133307
0.0133266
0.0132879
0.0132179
0.000224052
0.00160805
0.00323786
0.00473639
0.00604836
0.00717831
0.00814842
0.00898493
0.00971216
0.0103498
0.0109119
0.0114068
0.0118383
0.0122069
0.0125114
0.0127511
0.0129277
0.0130453
0.0131105
0.0131316
0.0131167
0.0130723
0.0130025
0.000221907
0.00157244
0.00317198
0.00464985
0.00594739
0.00706645
0.00802753
0.00885613
0.00957653
0.0102087
0.0107668
0.0112591
0.0116887
0.0120548
0.012355
0.0125874
0.012753
0.012857
0.0129079
0.0129166
0.0128939
0.0128482
0.0127842
0.000220469
0.00154024
0.00311055
0.00456821
0.00585139
0.00695894
0.00790957
0.00872807
0.00943886
0.0100625
0.0106138
0.0111011
0.0115271
0.0118898
0.0121853
0.0124105
0.0125661
0.0126579
0.0126966
0.0126962
0.0126701
0.0126284
0.0125761
0.000219829
0.00151246
0.00305564
0.00449448
0.00576406
0.00685998
0.00779897
0.00860522
0.00930355
0.00991545
0.0104568
0.0109366
0.0113571
0.0117156
0.0120066
0.0122256
0.0123726
0.0124545
0.0124843
0.0124787
0.0124539
0.0124216
0.0123868
0.000220035
0.00148988
0.00300913
0.00443145
0.0056888
0.00677329
0.00769961
0.00849147
0.0091744
0.00977124
0.0102993
0.0107687
0.011182
0.0115355
0.0118223
0.0120365
0.0121774
0.0122523
0.0122764
0.0122696
0.0122504
0.0122319
0.0122188
0.00022109
0.00147307
0.00297267
0.00438166
0.00562871
0.0067022
0.00761484
0.00839013
0.00905462
0.00963295
0.0101444
0.0106005
0.0110045
0.0113523
0.0116356
0.0118465
0.0119835
0.0120544
0.0120761
0.012071
0.0120604
0.012058
0.0120688
0.000222962
0.00146241
0.00294768
0.00434738
0.00558648
0.00664955
0.0075475
0.00830394
0.00894689
0.00950317
0.00999437
0.0104341
0.0108268
0.011168
0.0114481
0.0116574
0.0117926
0.0118617
0.0118832
0.0118818
0.0118804
0.0118946
0.011929
0.000225593
0.00145816
0.00293531
0.0043304
0.00556425
0.00661758
0.00749977
0.00823502
0.00885329
0.00938396
0.00985137
0.0102715
0.0106504
0.0109839
0.0112609
0.0114697
0.0116049
0.0116737
0.0116955
0.0116973
0.0117043
0.0117329
0.0117881
0.000228906
0.00146057
0.00293636
0.00433196
0.00556347
0.00660776
0.0074731
0.00818482
0.0087753
0.00927689
0.00971695
0.0101142
0.0104766
0.0108006
0.0110742
0.0112831
0.0114194
0.0114882
0.0115097
0.0115124
0.0115241
0.0115626
0.0116341
0.00023281
0.00146981
0.00295121
0.00435263
0.00558481
0.00662078
0.00746816
0.00815403
0.00871377
0.00918304
0.00959236
0.00996336
0.0103062
0.0106185
0.0108877
0.0110968
0.0112344
0.0113031
0.0113223
0.0113221
0.0113325
0.0113741
0.0114545
0.000237215
0.00148585
0.00297972
0.00439238
0.00562829
0.00665659
0.00748485
0.00814268
0.008669
0.00910303
0.00947854
0.00982005
0.0101402
0.0104381
0.010701
0.0109096
0.0110485
0.0111163
0.0111305
0.0111221
0.011124
0.0111597
0.0112397
0.000242022
0.00150842
0.00302144
0.00445078
0.00569343
0.0067146
0.00752249
0.00815015
0.00864069
0.00903711
0.00937628
0.0096854
0.00997954
0.0102599
0.0105141
0.010721
0.0108607
0.0109268
0.0109331
0.0109107
0.0108953
0.0109147
0.0109827
0.000247153
0.00153695
0.00307577
0.00452733
0.00577964
0.00679391
0.00757994
0.00817534
0.0086281
0.00898516
0.00928617
0.0095606
0.00982577
0.0100851
0.0103275
0.0105308
0.0106708
0.0107347
0.010731
0.010689
0.0106471
0.0106381
0.0106808
0.000252566
0.00157096
0.00314251
0.00462205
0.00588665
0.00689366
0.00765585
0.00821678
0.00863012
0.00894674
0.00920864
0.00944691
0.00968062
0.00991548
0.0101425
0.0103396
0.0104793
0.0105415
0.0105273
0.0104618
0.0103847
0.0103347
0.010337
0.000258281
0.0016105
0.00322245
0.00473606
0.00601504
0.00701339
0.00774888
0.00827281
0.00864533
0.00892115
0.00914398
0.00934561
0.00954621
0.00975352
0.00996128
0.0101491
0.0102873
0.0103495
0.0103269
0.010237
0.0101186
0.0100154
0.00996123
0.000264408
0.00165625
0.00331797
0.00487236
0.00616684
0.00715341
0.0078579
0.00834165
0.00867209
0.00890743
0.00909218
0.00925788
0.00942481
0.00960224
0.00978691
0.00996151
0.0100968
0.0101612
0.0101352
0.0100252
0.00986422
0.00969907
0.00957272
0.000271162
0.00170971
0.00343402
0.0050371
0.00634639
0.00731518
0.00798215
0.00842154
0.00870863
0.00890438
0.00905298
0.00918458
0.00931856
0.00946491
0.00962322
0.00978034
0.00990998
0.00997823
0.00995639
0.0098366
0.00964017
0.00941153
0.00920123
0.000278886
0.00177481
0.0035806
0.00524168
0.00656143
0.00750159
0.00812118
0.00851063
0.00875297
0.00891053
0.00902572
0.00912608
0.00922912
0.00934464
0.0094744
0.00960978
0.00972958
0.00980165
0.00979157
0.00967738
0.00946327
0.00918262
0.00888707
0.000288149
0.00186116
0.00377753
0.00550632
0.00682438
0.0077169
0.00827451
0.00860677
0.00880289
0.00892415
0.00900928
0.0090821
0.00915736
0.00924376
0.00934434
0.00945453
0.00955932
0.00963205
0.00963819
0.00954603
0.00934123
0.00903747
0.00867558
0.000300055
0.00198763
0.00406346
0.00586582
0.00715316
0.00796567
0.00844065
0.00870702
0.00885571
0.00894309
0.00900202
0.00905151
0.00910293
0.00916327
0.00923581
0.00931896
0.00940366
0.00947087
0.0094917
0.0094325
0.00926574
0.00898273
0.00860135
0.000317182
0.00219712
0.00451971
0.00637909
0.00756974
0.0082495
0.00861525
0.00880697
0.00890812
0.00896479
0.00900168
0.00903222
0.00906415
0.00910234
0.00914956
0.00920587
0.00926682
0.00932108
0.00934882
0.00932259
0.00921246
0.00899507
0.00866312
0.000347332
0.0026178
0.00534009
0.00713992
0.00809019
0.00855986
0.00878841
0.00890006
0.008956
0.00898617
0.00900535
0.00902113
0.00903778
0.00905804
0.00908367
0.00911523
0.00915112
0.00918612
0.0092098
0.00920562
0.00915203
0.0090259
0.00880792
0.000421843
0.00389263
0.00705456
0.00825479
0.00869087
0.00886631
0.0089428
0.00897796
0.00899496
0.00900394
0.00900962
0.00901432
0.00901934
0.00902553
0.00903348
0.00904349
0.00905528
0.0090675
0.00907715
0.00907899
0.00906531
0.00902629
0.00895101
0.000401074
0.000369278
0.000340212
0.000325617
0.00155849
0.00131038
0.00121425
0.0012121
0.00291241
0.00253466
0.00228255
0.00213698
0.00403909
0.00368763
0.00339216
0.0031609
0.00475737
0.00449415
0.00425026
0.00403421
0.00497993
0.00480659
0.00464781
0.00450207
0.00500454
0.00482061
0.00467399
0.00454991
0.00742631
0.00675677
0.00582331
0.00506949
0.00960151
0.00925798
0.00887203
0.00848992
0.0111362
0.0109298
0.0107053
0.0104721
0.0121827
0.012047
0.0118978
0.0117383
0.0128734
0.0127761
0.0126667
0.0125469
0.0133021
0.0132254
0.0131373
0.013039
0.0135354
0.0134687
0.0133913
0.0133042
0.013622
0.0135594
0.0134865
0.0134047
0.0135987
0.0135369
0.0134656
0.0133862
0.0134944
0.0134323
0.0133616
0.0132837
0.0133332
0.0132713
0.0132019
0.0131263
0.0131366
0.0130767
0.0130106
0.0129393
0.0129244
0.0128692
0.0128091
0.0127448
0.0127138
0.0126665
0.0126156
0.0125614
0.0125184
0.0124822
0.0124436
0.0124024
0.012346
0.0123237
0.0123
0.0122745
0.0121979
0.0121915
0.0121848
0.012177
0.0120695
0.01208
0.0120914
0.0121026
0.0119509
0.0119784
0.0120079
0.0120384
0.0118292
0.0118725
0.0119191
0.0119682
0.0116905
0.0117469
0.0118084
0.0118739
0.0115209
0.0115868
0.0116595
0.011738
0.0113085
0.0113791
0.0114584
0.0115451
0.0110449
0.0111145
0.0111945
0.0112836
0.0107259
0.0107878
0.0108618
0.0109468
0.0103529
0.0103995
0.0104601
0.0105335
0.00993471
0.00995743
0.00999594
0.0100493
0.0094894
0.00947859
0.00948522
0.00950878
0.00904725
0.00899239
0.00895596
0.00893825
0.00865308
0.00854453
0.00845342
0.00838158
0.00836544
0.00819909
0.00804515
0.00790763
0.00824469
0.00803137
0.00781939
0.00761477
0.00832236
0.00809812
0.00786021
0.00761436
0.00856258
0.00838652
0.00818762
0.00796811
0.00885933
0.0087886
0.00870423
0.00860553
0.000523323
0.00101937
0.00243386
0.00316577
0.00366715
0.00400008
0.00413758
0.00401115
0.0035617
0.00276283
0.00216766
0.00249262
0.00297291
0.00335324
0.0035919
0.00378808
0.00381102
0.00293255
0.000574291
0.00135972
0.0017812
0.00232915
0.00281224
0.00314401
0.00329291
0.0032498
0.00293031
0.00245363
0.0029804
0.00302946
0.00313185
0.00329032
0.00347514
0.00366898
0.00384834
0.00384446
0.0029813
0.000580863
0.00206882
0.00228731
0.00262747
0.00299448
0.00323699
0.00322271
0.00321411
0.00329574
0.00321917
0.0031769
0.00320363
0.00328282
0.00341773
0.00360096
0.00380901
0.00398813
0.00393124
0.00298849
0.000577505
0.00289308
0.00286602
0.00301489
0.00321095
0.00340405
0.00353819
0.00355438
0.0034939
0.00342262
0.0033954
0.003421
0.00350413
0.00364811
0.00385525
0.0040844
0.00423502
0.00407828
0.00299986
0.000574148
0.00372968
0.00356316
0.00352943
0.00357733
0.00366017
0.00371811
0.0037306
0.00370571
0.00366834
0.00365499
0.00368426
0.00377767
0.00396257
0.004221
0.00445696
0.00452096
0.00420434
0.00299096
0.0005726
0.00427504
0.00411116
0.00401348
0.00397265
0.00396916
0.00397156
0.00396339
0.00394095
0.00391108
0.00389048
0.00390779
0.00401975
0.00429183
0.00464666
0.00486552
0.00476487
0.00422724
0.00291169
0.000564778
0.00437817
0.00427822
0.00421169
0.00417592
0.00416057
0.00414634
0.00412522
0.00409393
0.00405169
0.00401189
0.00402351
0.00420967
0.00469373
0.00514258
0.00520768
0.00482159
0.00403443
0.00271483
0.000552009
0.00450189
0.00432203
0.00423509
0.00421249
0.00420924
0.00419847
0.00417814
0.00415114
0.00411053
0.00404231
0.00402097
0.00418259
0.00481606
0.00526982
0.00505626
0.00442506
0.00350449
0.00237176
0.000538528
0.00794116
0.00749301
0.00707006
0.00611754
0.00511115
0.00472513
0.00469972
0.00490048
0.00558825
0.00644251
0.0061798
0.00553499
0.0050001
0.00451142
0.00419371
0.00358001
0.00275364
0.00196547
0.000516411
0.01009
0.00968739
0.00934075
0.00895445
0.00856976
0.00834127
0.00827059
0.00830774
0.00831882
0.00787465
0.00691106
0.00572652
0.00465088
0.00325677
0.00298518
0.00257367
0.00209329
0.00158033
0.000505002
0.0114646
0.0111342
0.010832
0.0105482
0.0102894
0.010088
0.00993597
0.00976987
0.00941402
0.00864455
0.00737541
0.00593217
0.00473784
0.00240265
0.00214109
0.00193197
0.00171921
0.00128891
0.000485201
0.0123364
0.0120629
0.0117975
0.0115498
0.0113268
0.0111339
0.0109518
0.0107061
0.0102462
0.00940893
0.00801757
0.00631119
0.0049731
0.00217879
0.00173367
0.00165422
0.00154655
0.00122119
0.000486548
0.0128644
0.0126287
0.0123919
0.0121682
0.0119675
0.0117898
0.0116105
0.0113588
0.0108951
0.0100751
0.0087441
0.00703491
0.00561149
0.00318526
0.00158537
0.0015313
0.00146391
0.00123272
0.000523879
0.0131494
0.0129375
0.0127218
0.0125169
0.012334
0.0121716
0.0120028
0.0117595
0.0113229
0.0105524
0.00934708
0.0078249
0.00644691
0.00507034
0.00162306
0.00145023
0.00140199
0.00120381
0.000520857
0.0132607
0.0130632
0.0128617
0.01267
0.0124989
0.0123464
0.0121848
0.011949
0.0115349
0.0108278
0.00977435
0.00847905
0.00716435
0.00579663
0.0034098
0.00139317
0.0013671
0.0012053
0.000502757
0.0132484
0.0130599
0.0128674
0.0126829
0.0125161
0.0123652
0.0122044
0.0119743
0.0115853
0.010949
0.0100427
0.00894555
0.00774082
0.00642495
0.00458343
0.00162589
0.00141863
0.00120157
0.000503697
0.013151
0.0129693
0.0127826
0.0126
0.0124301
0.0122721
0.0121043
0.0118763
0.0115136
0.0109491
0.0101744
0.00924206
0.00816664
0.00690499
0.00489597
0.0017347
0.0014817
0.00125516
0.000510869
0.0130001
0.0128255
0.0126435
0.0124589
0.0122796
0.0121065
0.0119241
0.0116929
0.0113539
0.0108564
0.0101964
0.00940181
0.00845188
0.00725136
0.00499859
0.00178746
0.00149991
0.00131594
0.000518083
0.0128227
0.0126579
0.0124805
0.0122918
0.0120985
0.0119041
0.0117005
0.0114601
0.0111392
0.0106999
0.0101382
0.00946225
0.00864964
0.00764041
0.00588221
0.00289186
0.00144332
0.00129759
0.000526128
0.012642
0.0124909
0.0123198
0.0121265
0.0119167
0.0116969
0.0114668
0.0112113
0.0109004
0.0105058
0.0100185
0.00942729
0.00873359
0.00794557
0.00651134
0.00387168
0.00140207
0.00129102
0.000548381
0.012477
0.0123447
0.0121828
0.0119865
0.0117597
0.0115123
0.0112518
0.0109748
0.0106626
0.0102891
0.00982588
0.00922676
0.00855442
0.00785664
0.00649852
0.00398457
0.00182393
0.00134574
0.00056973
0.0123411
0.0122332
0.0120856
0.0118899
0.0116485
0.0113734
0.0110794
0.0107731
0.0104419
0.0100473
0.00950926
0.0087863
0.00803891
0.00724542
0.00577324
0.00356675
0.00211297
0.000878648
0.000568981
0.0122405
0.0121633
0.0120367
0.0118485
0.011598
0.0112983
0.0109689
0.0106236
0.0102486
0.00977114
0.0090667
0.00814775
0.00721829
0.00611913
0.00424268
0.00239149
0.00179489
0.000693633
0.000575455
0.012174
0.012134
0.012037
0.0118658
0.0116161
0.0112988
0.0109352
0.0105421
0.0100996
0.0094969
0.00859949
0.00746459
0.00628372
0.0047633
0.00224747
0.00190963
0.00171787
0.000920985
0.000589382
0.0121332
0.0121364
0.0120785
0.0119369
0.0117016
0.011379
0.010988
0.0105447
0.0100255
0.00930407
0.00823611
0.00686471
0.00545553
0.00263793
0.00211992
0.00190386
0.00177909
0.00110954
0.000619571
0.0121038
0.0121551
0.0121454
0.012047
0.0118431
0.0115322
0.0111274
0.0106422
0.0100536
0.00924534
0.00803386
0.00648845
0.00402548
0.00245695
0.00220757
0.00191954
0.00176484
0.00120579
0.000623891
0.0120676
0.0121693
0.0122152
0.0121731
0.0120182
0.0117387
0.011339
0.0108287
0.0101828
0.00930367
0.00799179
0.00637383
0.00306718
0.00252001
0.00226978
0.00189422
0.00166641
0.001246
0.000631205
0.0120045
0.0121555
0.0122606
0.0122847
0.0121948
0.0119674
0.0115925
0.0110777
0.0104025
0.0094876
0.00817844
0.00655223
0.00326295
0.00251534
0.00226674
0.00184846
0.0015454
0.00126971
0.000637476
0.011895
0.0120897
0.0122523
0.0123472
0.0123338
0.0121771
0.0118507
0.0113539
0.0106795
0.00977168
0.0085356
0.00699299
0.00431861
0.0024474
0.00220035
0.00179868
0.0014511
0.00125107
0.00062269
0.0117212
0.0119503
0.0121623
0.0123251
0.0123927
0.0123198
0.0120639
0.011609
0.0109618
0.0100898
0.00893077
0.00747357
0.00494993
0.0024194
0.00216218
0.00177859
0.00141504
0.00128684
0.000595443
0.0114696
0.0117199
0.0119679
0.0121861
0.0123306
0.0123454
0.0121756
0.0117782
0.0111669
0.0103565
0.00928045
0.00782864
0.00511245
0.00246362
0.00219451
0.00180999
0.00145754
0.00135368
0.000688054
0.0111319
0.0113874
0.0116542
0.0119075
0.0121143
0.0122099
0.0121304
0.0118067
0.0112461
0.0104856
0.00946638
0.00804853
0.00504583
0.002525
0.00226195
0.00187559
0.00154376
0.00138474
0.000763673
0.0107057
0.0109488
0.0112147
0.0114812
0.0117242
0.0118845
0.0118916
0.0116688
0.0111894
0.0104753
0.00950002
0.0080627
0.0047114
0.00258651
0.0023199
0.00194454
0.00164871
0.0014316
0.000774425
0.0101952
0.0104069
0.0106516
0.010909
0.0111553
0.0113588
0.0114401
0.0113261
0.010956
0.0103219
0.00941361
0.00798122
0.00439816
0.00258568
0.0023233
0.00198645
0.0017634
0.00147623
0.00078156
0.0096129
0.00977206
0.00997474
0.0102011
0.0104283
0.0106361
0.0107733
0.0107584
0.0105227
0.0100217
0.00921621
0.00788628
0.0051202
0.00251367
0.00226614
0.00200493
0.00187291
0.00154035
0.000785795
0.00898204
0.0090642
0.00920171
0.00937382
0.00956076
0.00974024
0.00989563
0.00996461
0.00986769
0.00953942
0.00890962
0.00782067
0.00596421
0.00261947
0.00218348
0.00202873
0.00198854
0.00168111
0.000788026
0.0083426
0.00831772
0.00836289
0.00845488
0.00857488
0.00870424
0.00882887
0.00893413
0.00896235
0.00882572
0.00844266
0.00769463
0.00644356
0.00454562
0.00217829
0.00209559
0.00215826
0.00195223
0.000790996
0.00776138
0.00759255
0.00751126
0.00749215
0.00751448
0.00756354
0.00762439
0.00769876
0.00777169
0.00780433
0.0076894
0.00731662
0.00659213
0.00546292
0.00347993
0.00227095
0.00245844
0.00234535
0.000799105
0.00734536
0.00699533
0.00674544
0.00657623
0.00646464
0.00639399
0.00635338
0.00634512
0.00637966
0.00644791
0.00652516
0.0065137
0.00626397
0.00571175
0.00472925
0.00294075
0.0028768
0.00291162
0.000769065
0.00724349
0.00670901
0.00625759
0.00589489
0.00560704
0.00537654
0.00519025
0.00504228
0.0049579
0.00495484
0.00504132
0.00518982
0.00534381
0.00531981
0.00494898
0.00411495
0.00327073
0.00360101
0.000715162
0.0075964
0.00699533
0.00640424
0.00586146
0.00538231
0.00496508
0.00459798
0.00426615
0.00397512
0.00374877
0.00362915
0.0036577
0.00385676
0.00426571
0.00463335
0.0044725
0.00411199
0.00415367
0.00102744
0.00842053
0.00808541
0.00770245
0.00729751
0.00689364
0.00650469
0.00612866
0.00574334
0.00531657
0.00481202
0.00421823
0.00356303
0.00288275
0.00238362
0.00403547
0.00458459
0.00457189
0.0043015
0.0010912
)
;

boundaryField
{
    leftWall
    {
        type            nutkWallFunction;
        blending        stepwise;
        Cmu             0.09;
        kappa           0.41;
        E               9.8;
        value           nonuniform List<scalar> 
50
(
1.16729e-05
1.43423e-05
1.52382e-05
1.55778e-05
1.60508e-05
1.64541e-05
1.66937e-05
1.67229e-05
1.64937e-05
1.61695e-05
1.34365e-05
2.56167e-05
2.94883e-05
2.89715e-05
2.79923e-05
2.73834e-05
2.70795e-05
2.69423e-05
2.68162e-05
2.66577e-05
2.64504e-05
2.61637e-05
2.57965e-05
2.53671e-05
2.49034e-05
2.44365e-05
2.3997e-05
2.36134e-05
2.33101e-05
2.31074e-05
2.30191e-05
2.30532e-05
2.32111e-05
2.34889e-05
2.38781e-05
2.43676e-05
2.49436e-05
2.55919e-05
2.62979e-05
2.70496e-05
2.78403e-05
2.86716e-05
2.95569e-05
3.0525e-05
3.16212e-05
3.29183e-05
3.45565e-05
3.68611e-05
4.07856e-05
4.99473e-05
)
;
    }
    rightWall
    {
        type            nutkWallFunction;
        blending        stepwise;
        Cmu             0.09;
        kappa           0.41;
        E               9.8;
        value           nonuniform List<scalar> 
50
(
5.20151e-05
6.36155e-05
6.62823e-05
6.52686e-05
6.37738e-05
6.32747e-05
6.19693e-05
6.13212e-05
6.0337e-05
6.05495e-05
6.05097e-05
6.01264e-05
5.98789e-05
5.92509e-05
5.82094e-05
5.71461e-05
5.55566e-05
5.56484e-05
5.41494e-05
5.46e-05
5.80765e-05
5.79967e-05
5.55556e-05
5.53785e-05
5.56434e-05
5.61089e-05
5.767e-05
5.97975e-05
6.26366e-05
6.30589e-05
6.41624e-05
6.64453e-05
6.86641e-05
6.90854e-05
6.96437e-05
6.95409e-05
6.9755e-05
7.54147e-05
8.3865e-05
8.37366e-05
8.39898e-05
8.41651e-05
8.41265e-05
8.39517e-05
8.38091e-05
8.42925e-05
8.72506e-05
0.00010009
0.000123128
0.000137203
)
;
    }
    lowerWall
    {
        type            nutkWallFunction;
        blending        stepwise;
        Cmu             0.09;
        kappa           0.41;
        E               9.8;
        value           nonuniform List<scalar> 
62
(
5.62916e-06
7.34524e-06
8.96671e-06
1.00226e-05
1.07417e-05
1.12745e-05
1.16909e-05
1.2037e-05
1.23344e-05
1.25927e-05
1.28147e-05
1.29989e-05
1.314e-05
1.32281e-05
1.32415e-05
1.3195e-05
1.30654e-05
1.28091e-05
1.24008e-05
1.18252e-05
1.11057e-05
1.02967e-05
9.61677e-06
9.61677e-06
2.53358e-05
2.87269e-05
3.16358e-05
3.41271e-05
3.61204e-05
3.7933e-05
4.02149e-05
4.33785e-05
4.01957e-05
3.72723e-05
3.60957e-05
2.97918e-06
3.69138e-05
4.69785e-05
5.27465e-05
5.49974e-05
5.45729e-05
5.20642e-05
4.96248e-05
2.97918e-06
7.80202e-06
1.15334e-05
1.53119e-05
1.89625e-05
2.21463e-05
2.46857e-05
2.65513e-05
2.77789e-05
2.84396e-05
2.86366e-05
2.85006e-05
2.81711e-05
2.77567e-05
2.72792e-05
2.66548e-05
2.57676e-05
2.41797e-05
1.8572e-05
)
;
    }
    atmosphere
    {
        type            calculated;
        value           nonuniform List<scalar> 
46
(
0.009
0.009
0.009
0.009
0.009
0.009
0.009
0.009
0.009
0.009
0.009
0.009
0.009
0.009
0.009
0.009
0.009
0.009
0.009
0.009
0.009
0.009
0.009
0.009
0.009
0.009
0.009
0.009
0.009
0.009
0.009
0.009
0.009
0.009
0.009
0.009
0.009
0.009
0.009
0.009
0.009
0.00403547
0.00458459
0.00457189
0.0043015
0.0010912
)
;
    }
    defaultFaces
    {
        type            empty;
    }
}


// ************************************************************************* //
