/*--------------------------------*- C++ -*----------------------------------*\
| =========                 |                                                 |
| \\      /  F ield         | OpenFOAM: The Open Source CFD Toolbox           |
|  \\    /   O peration     | Version:  v2012                                 |
|   \\  /    A nd           | Website:  www.openfoam.com                      |
|    \\/     M anipulation  |                                                 |
\*---------------------------------------------------------------------------*/
FoamFile
{
    version     2.0;
    format      ascii;
    class       volScalarField;
    location    "0.5";
    object      p;
}
// * * * * * * * * * * * * * * * * * * * * * * * * * * * * * * * * * * * * * //

dimensions      [1 -1 -2 0 0 0 0];


internalField   nonuniform List<scalar> 
2268
(
621.689
620.913
627.513
637.629
648.558
659.238
669.765
680.555
692.027
704.495
718.165
733.163
749.558
767.415
786.915
808.234
831.576
856.793
882.892
906.719
923.293
923.479
944.398
562.49
560.548
565.975
575.108
585.401
595.862
606.464
617.496
629.285
642.107
656.158
671.578
688.456
706.879
726.977
749.087
773.426
800.105
828.157
853.704
871.598
865.397
884.101
502.428
500.553
505.428
513.243
522.578
532.532
542.983
554.092
566.092
579.213
593.64
609.516
626.948
646.044
666.939
689.893
715.144
742.645
771.403
797.402
815.774
811.804
828.006
442.345
440.969
445.461
452.268
460.682
470.023
480.153
491.164
503.221
516.519
531.233
547.501
565.433
585.138
606.712
630.304
656.066
683.762
712.357
738.128
757.116
758.577
776.655
382.523
382.028
385.838
391.791
399.379
408.089
417.82
428.632
440.642
454.026
468.95
485.545
503.914
524.153
546.299
570.378
596.411
624.008
652.153
677.597
697.133
704.307
727.852
322.935
323.254
326.258
331.417
338.251
346.337
355.638
366.202
378.107
391.524
406.614
423.5
442.274
463.015
485.693
510.202
536.436
563.868
591.534
616.615
636.337
649.028
677.224
263.507
264.331
266.499
270.866
276.979
284.444
293.308
303.615
315.399
328.833
344.085
361.261
380.44
401.691
424.909
449.849
476.296
503.588
530.821
555.424
574.682
591.312
620.574
204.223
204.917
206.03
209.498
214.921
221.849
230.36
240.481
252.191
265.692
281.168
298.703
318.357
340.182
363.983
389.371
416.05
443.263
470.121
494.058
511.929
527.219
552.084
336.174
336.061
335.917
335.717
335.428
335.046
334.61
334.172
333.781
333.479
333.291
333.225
333.278
333.428
333.641
334.237
336.316
340.327
343.354
336.125
336.013
335.886
335.691
335.395
335
334.55
334.102
333.705
333.398
333.209
333.146
333.196
333.33
333.507
333.964
335.772
339.682
343.158
336.098
335.99
335.858
335.646
335.325
334.914
334.46
334.013
333.618
333.308
333.118
333.055
333.095
333.196
333.313
333.572
334.809
338.388
342.944
336.093
335.976
335.823
335.576
335.228
334.805
334.351
333.907
333.511
333.196
333
332.936
332.96
333.008
333.048
333.118
333.625
336.242
342.857
336.103
335.962
335.778
335.496
335.123
334.689
334.23
333.784
333.386
333.061
332.861
332.797
332.806
332.796
332.753
332.703
332.693
333.026
343.035
336.127
335.946
335.725
335.412
335.018
334.571
334.105
333.654
333.253
332.917
332.712
332.654
332.655
332.595
332.489
332.374
332.091
328
342.814
336.166
335.93
335.664
335.324
334.914
334.455
333.981
333.524
333.122
332.775
332.567
332.516
332.512
332.416
332.322
332.278
332.095
322.564
341.274
336.205
335.892
335.599
335.238
334.816
334.346
333.862
333.396
332.993
332.633
332.428
332.404
332.404
332.333
332.402
332.96
334.553
321.866
342.621
111.978
111.236
110.744
112.855
117.139
123.163
131.042
140.834
152.455
166.07
181.914
200.06
220.587
243.55
268.491
294.685
321.785
348.994
375.515
398.518
413.657
416.13
396.199
26.3574
22.3452
20.716
22.0378
24.2519
27.0593
30.6034
35.0671
40.8959
49.0581
59.5539
72.8144
89.725
111.484
137.667
165.829
194.675
222.392
250.515
275.892
294.156
303.109
308.89
-0.13559
0.0612309
0.147748
0.145248
0.128279
0.11562
0.104887
0.11815
0.556149
2.055
4.43461
7.9441
13.2197
21.5834
34.3577
51.8681
73.4258
98.8555
130.805
160.763
183.861
202.679
220.628
-0.0610669
-0.0678202
-0.0522969
-0.0409243
-0.032667
-0.0265502
-0.0221081
-0.016905
-0.00963803
-0.0186132
-0.0212215
-0.0194406
-0.017646
-0.0180274
0.0763401
2.08083
7.24256
18.0499
37.427
59.7943
81.8587
103.942
124.452
-0.233689
-0.221866
-0.203354
-0.189497
-0.18176
-0.176751
-0.17223
-0.16675
-0.159451
-0.155978
-0.156682
-0.159427
-0.161918
-0.159506
-0.145042
-0.153081
-0.251138
-0.321296
1.17611
7.41454
19.0421
32.2062
45.3607
-0.355755
-0.352795
-0.34417
-0.335216
-0.329207
-0.324888
-0.320933
-0.316636
-0.312415
-0.309784
-0.308533
-0.307982
-0.307409
-0.30583
-0.305148
-0.316717
-0.328047
-0.334366
-0.414579
-0.598182
-0.571263
1.07562
6.33615
-0.492442
-0.489661
-0.484597
-0.478866
-0.474155
-0.470251
-0.46665
-0.463124
-0.459995
-0.457597
-0.45575
-0.454346
-0.453402
-0.453205
-0.455609
-0.466139
-0.479891
-0.487338
-0.484724
-0.493718
-0.533063
-0.658792
-0.811335
-0.631467
-0.629244
-0.625925
-0.621941
-0.618196
-0.614745
-0.611439
-0.608244
-0.605332
-0.602866
-0.600886
-0.599473
-0.598833
-0.599423
-0.602445
-0.610498
-0.622672
-0.635712
-0.65206
-0.672853
-0.668062
-0.63973
-0.636014
-0.771733
-0.769902
-0.767805
-0.765066
-0.762119
-0.759113
-0.756076
-0.753066
-0.750222
-0.747697
-0.745619
-0.744151
-0.743548
-0.744221
-0.746897
-0.752641
-0.761195
-0.7713
-0.783415
-0.798558
-0.811164
-0.822275
-0.837231
-0.9129
-0.911613
-0.910365
-0.908463
-0.906094
-0.903438
-0.90061
-0.897717
-0.8949
-0.892311
-0.890105
-0.888472
-0.887661
-0.887998
-0.889911
-0.893805
-0.899468
-0.906275
-0.914081
-0.922646
-0.930049
-0.936223
-0.941563
-1.0546
-1.05391
-1.05332
-1.05199
-1.05003
-1.04764
-1.04497
-1.04215
-1.03932
-1.03665
-1.0343
-1.03244
-1.0313
-1.03112
-1.03211
-1.03439
-1.03773
-1.04165
-1.04574
-1.0494
-1.05139
-1.05143
-1.04928
-1.1967
-1.19655
-1.19639
-1.19547
-1.19383
-1.19165
-1.1891
-1.18634
-1.1835
-1.18074
-1.17823
-1.17612
-1.1746
-1.17382
-1.17386
-1.1747
-1.17603
-1.17742
-1.17837
-1.17825
-1.17617
-1.17186
-1.16507
-1.33915
-1.33934
-1.3395
-1.33888
-1.33747
-1.33546
-1.33303
-1.33032
-1.32747
-1.32464
-1.32197
-1.3196
-1.31768
-1.31629
-1.31543
-1.31496
-1.31455
-1.31373
-1.31199
-1.30874
-1.30332
-1.29554
-1.2851
-1.4819
-1.48231
-1.48267
-1.48223
-1.481
-1.47914
-1.4768
-1.47414
-1.4713
-1.46841
-1.46561
-1.46301
-1.46071
-1.45873
-1.45703
-1.45539
-1.45345
-1.45073
-1.44672
-1.44087
-1.43269
-1.42207
-1.40883
-1.62498
-1.62549
-1.62593
-1.62561
-1.6245
-1.62276
-1.62052
-1.61792
-1.6151
-1.61219
-1.60928
-1.60648
-1.60384
-1.60133
-1.59887
-1.59619
-1.59291
-1.58856
-1.58264
-1.57468
-1.56429
-1.55148
-1.53618
-1.76845
-1.76895
-1.7694
-1.76912
-1.76811
-1.76646
-1.76431
-1.76178
-1.759
-1.75608
-1.75312
-1.75016
-1.74722
-1.74426
-1.74112
-1.73752
-1.73309
-1.72735
-1.71985
-1.71019
-1.69809
-1.68368
-1.66699
-1.91235
-1.91279
-1.91316
-1.91289
-1.91193
-1.91036
-1.90829
-1.90584
-1.90312
-1.90023
-1.89723
-1.89416
-1.89099
-1.88763
-1.8839
-1.87951
-1.87408
-1.86717
-1.85839
-1.8474
-1.83405
-1.81855
-1.80109
-2.05673
-2.05707
-2.05733
-2.05703
-2.05609
-2.05459
-2.0526
-2.05023
-2.04759
-2.04474
-2.04174
-2.03859
-2.03523
-2.03153
-2.0273
-2.02223
-2.01595
-2.00807
-1.99825
-1.98627
-1.97205
-1.95593
-1.9382
-2.20162
-2.20184
-2.20198
-2.20162
-2.2007
-2.19925
-2.19734
-2.19506
-2.19251
-2.18973
-2.18675
-2.18355
-2.18004
-2.17606
-2.17139
-2.16573
-2.15873
-2.15005
-2.13943
-2.12673
-2.112
-2.09564
-2.07804
-2.34703
-2.34714
-2.34716
-2.34675
-2.34583
-2.34443
-2.3426
-2.34042
-2.33796
-2.33527
-2.33234
-2.32912
-2.32549
-2.32127
-2.31622
-2.31005
-2.30244
-2.29311
-2.28188
-2.26871
-2.25373
-2.23744
-2.22028
-2.49298
-2.49299
-2.49291
-2.49245
-2.49153
-2.49017
-2.48842
-2.48635
-2.48401
-2.48142
-2.47857
-2.47535
-2.47163
-2.46722
-2.46185
-2.45524
-2.44711
-2.43725
-2.42556
-2.4121
-2.39709
-2.38107
-2.36456
-2.63947
-2.63942
-2.63925
-2.63875
-2.63784
-2.63652
-2.63485
-2.63289
-2.63067
-2.6282
-2.62543
-2.62225
-2.61848
-2.6139
-2.60826
-2.60127
-2.59271
-2.58242
-2.5704
-2.55678
-2.54187
-2.52623
-2.51044
-2.78651
-2.78641
-2.78619
-2.78567
-2.78477
-2.78349
-2.7819
-2.78004
-2.77795
-2.77561
-2.77295
-2.76982
-2.76602
-2.76132
-2.75543
-2.74812
-2.73919
-2.72855
-2.71628
-2.7026
-2.68785
-2.67263
-2.65753
-2.93409
-2.93398
-2.93372
-2.9332
-2.93231
-2.93109
-2.92957
-2.92782
-2.92586
-2.92365
-2.9211
-2.91803
-2.91423
-2.90943
-2.90334
-2.89575
-2.8865
-2.87558
-2.86313
-2.84943
-2.83487
-2.82004
-2.80551
-3.08221
-3.08211
-3.08185
-3.08134
-3.08048
-3.0793
-3.07787
-3.07623
-3.07439
-3.07231
-3.06987
-3.06688
-3.06308
-3.05819
-3.05194
-3.0441
-3.03459
-3.02344
-3.01087
-2.99719
-2.98281
-2.96831
-2.9542
-3.23087
-3.23078
-3.23053
-3.23006
-3.22924
-3.22812
-3.22677
-3.22524
-3.22353
-3.22157
-3.21924
-3.21632
-3.21253
-3.20757
-3.20117
-3.19313
-3.18341
-3.17209
-3.15943
-3.1458
-3.13159
-3.11733
-3.10348
-3.38003
-3.37997
-3.37976
-3.37934
-3.37857
-3.37752
-3.37626
-3.37484
-3.37326
-3.37143
-3.3692
-3.36634
-3.36255
-3.35752
-3.351
-3.34281
-3.33291
-3.32146
-3.30876
-3.29519
-3.28113
-3.26704
-3.25331
-3.5297
-3.52967
-3.52951
-3.52915
-3.52845
-3.52747
-3.52631
-3.52501
-3.52355
-3.52184
-3.5197
-3.51689
-3.51311
-3.50804
-3.50142
-3.49309
-3.48307
-3.47153
-3.45883
-3.44534
-3.43141
-3.41745
-3.40373
-3.67984
-3.67985
-3.67976
-3.67947
-3.67883
-3.67794
-3.67689
-3.6757
-3.67436
-3.67276
-3.67072
-3.66796
-3.66419
-3.65908
-3.65239
-3.64397
-3.63387
-3.62231
-3.60966
-3.59628
-3.58249
-3.56861
-3.55483
-3.83044
-3.83049
-3.83047
-3.83026
-3.82969
-3.82889
-3.82795
-3.82688
-3.82566
-3.82417
-3.82221
-3.81951
-3.81575
-3.81063
-3.8039
-3.79544
-3.78534
-3.77383
-3.7613
-3.74809
-3.73447
-3.72066
-3.70679
-3.98147
-3.98157
-3.98162
-3.98148
-3.981
-3.98029
-3.97945
-3.97851
-3.97741
-3.97602
-3.97415
-3.97151
-3.96778
-3.96266
-3.95593
-3.9475
-3.93748
-3.92614
-3.91383
-3.90089
-3.88751
-3.87383
-3.85989
-4.1329
-4.13306
-4.13317
-4.13312
-4.13272
-4.13211
-4.13138
-4.13055
-4.12957
-4.1283
-4.12651
-4.12393
-4.12024
-4.11516
-4.10849
-4.10017
-4.09034
-4.07928
-4.06734
-4.05481
-4.0418
-4.02837
-4.01444
-4.2847
-4.28494
-4.2851
-4.28514
-4.28483
-4.28432
-4.2837
-4.28299
-4.28212
-4.28095
-4.27925
-4.27675
-4.27312
-4.26812
-4.26156
-4.25345
-4.24392
-4.2333
-4.2219
-4.20997
-4.19754
-4.18453
-4.17077
-4.43682
-4.43718
-4.43738
-4.43753
-4.43731
-4.4369
-4.43639
-4.43579
-4.43503
-4.43396
-4.43235
-4.42993
-4.42641
-4.42153
-4.41516
-4.40734
-4.39826
-4.38822
-4.37757
-4.36646
-4.35483
-4.34249
-4.32913
-4.58917
-4.58982
-4.59001
-4.59027
-4.59015
-4.58984
-4.58943
-4.58892
-4.58826
-4.58728
-4.58578
-4.58346
-4.58007
-4.57537
-4.56927
-4.56185
-4.55333
-4.54406
-4.53434
-4.52427
-4.51371
-4.50231
-4.48966
-4.74163
-4.74293
-4.74301
-4.74338
-4.74334
-4.74311
-4.74278
-4.74236
-4.74178
-4.74089
-4.73949
-4.7373
-4.73408
-4.72963
-4.72388
-4.71696
-4.70914
-4.70078
-4.69217
-4.68336
-4.67409
-4.66392
-4.65231
-4.89418
-4.89666
-4.89646
-4.89689
-4.8969
-4.8967
-4.89642
-4.89606
-4.89555
-4.89475
-4.89346
-4.89143
-4.88843
-4.88429
-4.87899
-4.87268
-4.86568
-4.85837
-4.85101
-4.84362
-4.83584
-4.82713
-4.81685
-5.04678
-5.05115
-5.05053
-5.05091
-5.05089
-5.05068
-5.05041
-5.05008
-5.04962
-5.0489
-5.04773
-5.04588
-5.04316
-5.03942
-5.03468
-5.0291
-5.02303
-5.01686
-5.01085
-5.00495
-4.99876
-4.99165
-4.98293
-5.19943
-5.20625
-5.20518
-5.20529
-5.20517
-5.2049
-5.20462
-5.2043
-5.20387
-5.20322
-5.20218
-5.20055
-5.19817
-5.19493
-5.19085
-5.18613
-5.1811
-5.17614
-5.1715
-5.16708
-5.16246
-5.15699
-5.15002
-5.35229
-5.3622
-5.36022
-5.35933
-5.35896
-5.35864
-5.35832
-5.35799
-5.35758
-5.35698
-5.35606
-5.35467
-5.35269
-5.35004
-5.34675
-5.343
-5.33909
-5.33536
-5.33199
-5.32892
-5.32572
-5.32183
-5.31675
-5.50411
-5.52227
-5.51718
-5.51342
-5.5124
-5.51199
-5.51163
-5.51126
-5.51083
-5.51026
-5.50947
-5.50836
-5.50684
-5.50487
-5.50248
-5.49981
-5.49708
-5.49452
-5.49227
-5.49029
-5.48829
-5.48584
-5.48243
-5.64783
-5.69096
-5.67935
-5.67284
-5.67136
-5.6708
-5.67038
-5.66999
-5.66957
-5.66908
-5.66849
-5.66775
-5.66684
-5.66574
-5.66448
-5.6631
-5.6617
-5.66037
-5.6592
-5.6582
-5.6573
-5.6564
-5.65525
331.186
339.426
347.269
337.981
307.222
308.631
306.835
304.079
229.366
233.386
237.544
243.387
135.903
144.886
155.397
166.676
53.6935
61.1865
71.2216
82.981
12.4826
16.8123
21.6546
27.1823
-0.911078
-0.928132
-0.662703
0.141175
-0.649518
-0.672862
-0.713007
-0.764609
-0.842142
-0.832207
-0.804014
-0.770747
-0.942107
-0.942559
-0.941677
-0.94009
-1.0455
-1.0425
-1.03811
-1.03344
-1.15873
-1.15374
-1.14697
-1.13917
-1.27606
-1.26923
-1.26065
-1.25108
-1.3978
-1.38969
-1.37987
-1.36917
-1.5238
-1.51489
-1.50441
-1.49317
-1.65382
-1.64457
-1.63394
-1.62267
-1.78765
-1.77842
-1.76802
-1.75709
-1.9249
-1.91595
-1.90603
-1.89567
-2.06517
-2.05668
-2.04739
-2.03773
-2.20808
-2.20017
-2.19158
-2.18267
-2.35316
-2.34592
-2.33809
-2.32992
-2.4999
-2.49333
-2.48624
-2.47878
-2.64773
-2.64175
-2.63532
-2.62849
-2.79625
-2.79068
-2.78475
-2.77842
-2.94522
-2.93985
-2.93418
-2.92816
-3.09455
-3.08918
-3.08355
-3.07763
-3.24427
-3.23876
-3.233
-3.227
-3.39447
-3.38875
-3.38277
-3.37662
-3.54529
-3.53938
-3.53322
-3.52691
-3.69698
-3.6909
-3.68465
-3.67829
-3.84981
-3.84361
-3.83735
-3.83105
-4.00413
-3.99783
-3.99161
-3.98546
-4.16031
-4.15391
-4.14773
-4.14174
-4.31864
-4.31215
-4.30596
-4.30007
-4.47934
-4.47278
-4.4665
-4.4606
-4.6424
-4.63585
-4.62947
-4.62351
-4.80764
-4.80126
-4.79486
-4.78889
-4.97469
-4.9687
-4.96252
-4.95676
-5.1431
-5.1378
-5.13221
-5.127
-5.31169
-5.30751
-5.30291
-5.29849
-5.47842
-5.47529
-5.47205
-5.46915
-5.65349
-5.65209
-5.65061
-5.64918
334.444
335.559
335.5
335.123
334.682
334.193
333.695
333.216
332.803
332.396
332.172
332.322
332.574
332.722
331.78
330.808
336.494
328.75
361.828
313.364
334.545
335.117
334.949
334.615
334.149
333.674
333.242
332.853
332.465
329.951
326.323
322.277
317.079
323.428
349.151
385.586
428.819
573.403
257.99
297.682
328.609
334.461
334.134
333.731
333.341
332.821
330.839
314.104
296.992
300.658
315.324
344.378
386.638
438.665
505.236
617.111
834.263
185.162
221.063
260.098
293.39
317.975
326.299
325.218
316.375
289.67
267.045
267.854
289.667
319.596
364.926
420.55
481.024
556.441
688.429
900.041
103.758
132.761
161.398
190.601
221.337
241.098
239.659
223.997
201.756
192.777
205.714
240.43
291.915
357.069
424.324
483.627
547.847
664.012
836.537
36.4198
51.2098
68.1298
84.7468
100.076
110.799
111.86
107.288
101.298
101.438
117.294
161.505
233.396
325.512
412.963
465.323
498.465
574.443
707.436
2.70108
8.56098
15.6357
20.8465
24.3121
26.7107
27.5646
28.2115
28.303
27.0001
28.617
46.1124
96.466
209.792
348.312
414.636
417.759
436.167
517.293
-0.870071
-0.941807
-0.990923
-0.952276
-0.72589
-0.330263
-0.0217697
0.394416
0.667188
0.758902
1.59782
5.16519
23.7682
92.0909
219.785
312.615
316.19
276.647
311.675
-0.730277
-0.708649
-0.724171
-0.799079
-0.902428
-0.879786
-0.633272
-0.130061
0.50783
0.94491
1.32952
1.92532
5.86134
26.7351
99.3351
218.348
231.11
162.314
183.291
-0.9342
-0.926009
-0.899934
-0.823965
-0.698907
-0.552129
-0.369896
-0.108594
0.228934
0.590305
0.994166
1.04185
0.316943
3.79269
46.1713
151.11
172.599
143.824
151.795
-1.0232
-0.993727
-0.952254
-0.891146
-0.79133
-0.658159
-0.483142
-0.259798
0.000305631
0.278924
0.584892
0.605825
-0.455715
-0.444751
11.5167
87.13
145.884
146.536
147.938
-1.12272
-1.08765
-1.03775
-0.969861
-0.876077
-0.751919
-0.592495
-0.399789
-0.19163
-0.000141051
0.144987
0.115504
-0.406685
-1.10248
1.14241
37.587
123.974
145.158
146.163
-1.23185
-1.19311
-1.13926
-1.06752
-0.97461
-0.858253
-0.718721
-0.562384
-0.406366
-0.284676
-0.250252
-0.377546
-0.670773
-1.4534
-0.822032
10.7694
88.1833
132.256
136.752
-1.34847
-1.30827
-1.25398
-1.18361
-1.09599
-0.991231
-0.872526
-0.748422
-0.635627
-0.562068
-0.567473
-0.730639
-1.02016
-1.50984
-1.43948
1.66094
46.5499
109.294
125.019
-1.47194
-1.43203
-1.37957
-1.31348
-1.23381
-1.14183
-1.04174
-0.942147
-0.857043
-0.806596
-0.818629
-0.935066
-1.14769
-1.42841
-1.53185
-1.43217
4.77184
70.4206
101.842
-1.60169
-1.56325
-1.514
-1.45346
-1.38238
-1.3024
-1.21756
-1.13509
-1.06533
-1.02059
-1.01433
-1.06362
-1.16964
-1.3131
-1.33369
-1.4357
-2.03281
41.7217
73.3488
-1.73688
-1.70068
-1.65535
-1.6008
-1.53804
-1.46865
-1.39579
-1.32453
-1.26109
-1.21083
-1.17661
-1.16054
-1.16233
-1.18524
-1.14851
-1.18065
-1.41722
26.7649
53.7507
-1.87661
-1.84308
-1.80193
-1.75332
-1.69824
-1.63793
-1.57442
-1.51047
-1.44838
-1.38798
-1.32484
-1.25126
-1.16139
-1.07802
-1.06326
-0.963918
0.391475
17.8167
45.5129
-2.02001
-1.98932
-1.95235
-1.90935
-1.86117
-1.80862
-1.75272
-1.69426
-1.63248
-1.56324
-1.4777
-1.36288
-1.20735
-1.02751
-0.95083
-1.05244
-1.63114
2.80926
33.7821
-2.16635
-2.13844
-2.1054
-2.06752
-2.02545
-1.97962
-1.93039
-1.8773
-1.81779
-1.74555
-1.64957
-1.5145
-1.32239
-1.05176
-0.81523
-0.837765
-0.501251
0.593385
19.5876
-2.3149
-2.28954
-2.26001
-2.22659
-2.18978
-2.14981
-2.10679
-2.06001
-2.00659
-1.94015
-1.85006
-1.72026
-1.5209
-1.21463
-0.871001
-0.653847
-0.0797258
-1.831
2.34399
-2.46492
-2.44175
-2.41511
-2.38533
-2.35281
-2.31776
-2.28056
-2.24125
-2.19829
-2.14772
-2.08341
-1.99333
-1.84629
-1.57611
-1.16312
-0.749275
-0.4708
-1.65121
-2.13901
-2.61564
-2.59419
-2.56974
-2.5426
-2.51315
-2.48179
-2.44959
-2.41819
-2.38881
-2.36218
-2.34104
-2.32747
-2.29188
-2.14889
-1.78101
-1.43222
-0.292245
2.29613
2.81115
-2.76635
-2.74613
-2.72308
-2.69749
-2.6697
-2.64043
-2.6116
-2.58698
-2.57112
-2.57082
-2.60393
-2.70387
-2.81576
-2.85075
-2.75751
-2.5282
1.71199
6.49115
5.9495
-2.91662
-2.89709
-2.87468
-2.84953
-2.82196
-2.79298
-2.76511
-2.74424
-2.73908
-2.76168
-2.84333
-3.09457
-3.29111
-3.59038
-4.73656
-5.7585
3.73904
9.53422
14.8614
-3.06634
-3.04698
-3.0245
-2.99884
-2.97027
-2.94007
-2.91056
-2.88881
-2.88942
-2.93038
-3.0139
-3.40404
-3.27886
-3.67843
-5.01569
0.761025
9.86931
15.4614
29.7325
-3.21571
-3.19611
-3.17302
-3.14617
-3.11573
-3.08319
-3.05113
-3.02546
-3.02475
-3.07128
-3.19069
-3.59197
-3.38561
-2.31442
1.25474
11.4817
24.4579
26.9302
50.9196
-3.3652
-3.34508
-3.32107
-3.29273
-3.26008
-3.22456
-3.19006
-3.16096
-3.15649
-3.2014
-3.3235
-3.64874
-3.90162
-3.46245
3.82502
18.048
35.4318
39.1279
76.6338
-3.51534
-3.49461
-3.46966
-3.43994
-3.4054
-3.36728
-3.33019
-3.29905
-3.28683
-3.31586
-3.41219
-3.60916
-3.82278
-3.26755
0.758007
19.021
37.7694
44.8363
75.688
-3.66664
-3.64539
-3.6197
-3.58905
-3.55345
-3.5141
-3.47533
-3.44427
-3.42018
-3.42548
-3.48493
-3.5782
-3.62974
-3.39514
-2.6826
16.0889
32.5121
38.4654
53.1515
-3.81948
-3.79795
-3.77186
-3.7409
-3.70532
-3.66661
-3.62939
-3.60088
-3.56748
-3.55182
-3.58202
-3.63686
-3.68202
-3.81651
-3.28666
12.7806
26.1991
29.9949
32.7911
-3.97411
-3.95259
-3.92651
-3.8958
-3.86107
-3.82443
-3.79089
-3.76288
-3.73461
-3.71185
-3.71359
-3.72852
-3.73363
-3.85394
-3.15031
10.1871
21.6875
24.2375
26.5225
-4.13068
-4.10944
-4.08374
-4.05367
-4.02001
-3.98498
-3.95249
-3.92393
-3.90802
-3.88938
-3.87343
-3.84967
-3.79884
-3.68163
-2.60985
8.69549
19.7102
22.2189
32.2069
-4.28928
-4.2686
-4.24363
-4.21458
-4.18191
-4.14807
-4.11549
-4.0871
-4.07016
-4.06226
-4.04936
-4.02331
-4.0209
-3.92851
-2.44698
7.0566
18.5489
21.7117
32.9609
-4.45004
-4.43018
-4.40627
-4.37844
-4.34739
-4.31467
-4.28246
-4.25352
-4.23176
-4.22682
-4.22653
-4.20385
-4.20267
-4.06098
-3.33628
3.60669
16.8998
22.1198
36.1067
-4.61316
-4.59442
-4.57197
-4.54582
-4.51659
-4.48529
-4.45382
-4.42474
-4.40151
-4.38926
-4.39154
-4.37286
-4.33362
-4.29948
-3.36437
-1.2077
12.8939
21.7049
43.7934
-4.77889
-4.76164
-4.74108
-4.71709
-4.69006
-4.6607
-4.63042
-4.60174
-4.5784
-4.5647
-4.56449
-4.56941
-4.58423
-4.67013
-4.99329
-4.29775
5.74148
15.3203
50.4842
-4.94746
-4.93216
-4.91401
-4.89272
-4.8685
-4.84179
-4.81357
-4.78605
-4.76273
-4.74817
-4.7466
-4.75706
-4.77389
-4.77975
-4.80613
-4.99182
-3.50973
0.222133
48.6354
-5.11873
-5.1058
-5.09054
-5.07256
-5.05192
-5.02889
-5.00411
-4.97914
-4.95676
-4.94084
-4.93567
-4.94367
-4.9613
-4.95853
-4.87442
-4.94279
-5.83501
-11.1968
23.7581
-5.29134
-5.28101
-5.26898
-5.2548
-5.23852
-5.22024
-5.2003
-5.17966
-5.16026
-5.14497
-5.1373
-5.1404
-5.15712
-5.17784
-5.13866
-4.96481
-5.63428
-9.51221
0.011621
-5.4647
-5.4574
-5.44891
-5.43909
-5.42791
-5.41538
-5.40154
-5.38681
-5.37223
-5.35985
-5.35255
-5.35364
-5.36649
-5.39334
-5.4185
-5.21063
-5.09323
-6.1046
-7.91486
-5.64684
-5.64276
-5.6386
-5.63432
-5.62978
-5.6249
-5.61963
-5.6139
-5.60774
-5.60124
-5.59576
-5.59615
-5.62087
-5.73155
-5.75359
-5.58403
-5.26208
-5.85757
-9.93706
)
;

boundaryField
{
    leftWall
    {
        type            calculated;
        value           nonuniform List<scalar> 
50
(
621.689
562.49
502.428
442.345
382.523
322.935
263.507
204.223
111.978
26.3574
-0.13559
-0.0610669
-0.233689
-0.355755
-0.492442
-0.631467
-0.771733
-0.9129
-1.0546
-1.1967
-1.33915
-1.4819
-1.62498
-1.76845
-1.91235
-2.05673
-2.20162
-2.34703
-2.49298
-2.63947
-2.78651
-2.93409
-3.08221
-3.23087
-3.38003
-3.5297
-3.67984
-3.83044
-3.98147
-4.1329
-4.2847
-4.43682
-4.58917
-4.74163
-4.89418
-5.04678
-5.19943
-5.35229
-5.50411
-5.64783
)
;
    }
    rightWall
    {
        type            calculated;
        value           nonuniform List<scalar> 
50
(
343.354
343.158
342.944
342.857
343.035
342.814
341.274
342.621
361.828
573.403
834.263
900.041
836.537
707.436
517.293
311.675
183.291
151.795
147.938
146.163
136.752
125.019
101.842
73.3488
53.7507
45.5129
33.7821
19.5876
2.34399
-2.13901
2.81115
5.9495
14.8614
29.7325
50.9196
76.6338
75.688
53.1515
32.7911
26.5225
32.2069
32.9609
36.1067
43.7934
50.4842
48.6354
23.7581
0.011621
-7.91486
-9.93706
)
;
    }
    lowerWall
    {
        type            calculated;
        value           nonuniform List<scalar> 
62
(
651.119
650.342
656.943
667.058
677.988
688.667
699.194
709.984
721.456
733.924
747.595
762.593
778.987
796.844
816.344
837.663
861.006
886.222
912.321
936.149
951.661
950.866
972.35
944.398
884.101
828.006
776.655
727.852
677.224
620.574
552.084
393.742
401.984
409.865
391.195
336.174
336.125
336.098
336.093
336.103
336.127
336.166
336.205
336.204
336.09
335.947
335.747
335.457
335.076
334.64
334.201
333.811
333.508
333.321
333.255
333.308
333.458
333.67
334.266
336.346
340.358
343.387
)
;
    }
    atmosphere
    {
        type            calculated;
        value           nonuniform List<scalar> 
46
(
-5.73435
-5.75751
-5.75739
-5.75655
-5.75595
-5.7555
-5.7551
-5.75472
-5.75433
-5.75391
-5.75346
-5.75299
-5.75249
-5.75196
-5.7514
-5.7508
-5.75018
-5.74953
-5.74891
-5.74837
-5.74805
-5.74811
-5.74874
-5.74956
-5.74975
-5.74933
-5.74833
-5.7462
-5.74425
-5.74335
-5.74323
-5.74369
-5.74469
-5.74631
-5.74857
-5.75152
-5.75509
-5.75906
-5.76304
-5.76432
-5.75071
-5.72951
-5.72932
-5.72986
-5.93829
-14.5672
)
;
    }
    defaultFaces
    {
        type            empty;
    }
}


// ************************************************************************* //
