/*--------------------------------*- C++ -*----------------------------------*\
| =========                 |                                                 |
| \\      /  F ield         | OpenFOAM: The Open Source CFD Toolbox           |
|  \\    /   O peration     | Version:  v2012                                 |
|   \\  /    A nd           | Website:  www.openfoam.com                      |
|    \\/     M anipulation  |                                                 |
\*---------------------------------------------------------------------------*/
FoamFile
{
    version     2.0;
    format      ascii;
    class       volScalarField;
    location    "0.5";
    object      p_rgh;
}
// * * * * * * * * * * * * * * * * * * * * * * * * * * * * * * * * * * * * * //

dimensions      [1 -1 -2 0 0 0 0];


internalField   nonuniform List<scalar> 
2268
(
651.119
650.342
656.943
667.058
677.988
688.667
699.194
709.984
721.456
733.924
747.595
762.593
778.987
796.844
816.344
837.663
861.006
886.222
912.321
936.149
951.661
950.866
972.35
650.778
648.836
654.263
663.396
673.689
684.15
694.752
705.784
717.574
730.395
744.446
759.866
776.744
795.167
815.265
837.375
861.714
888.393
916.445
941.992
959.229
947.559
971.889
649.575
647.7
652.575
660.39
669.725
679.679
690.13
701.239
713.239
726.359
740.786
756.662
774.095
793.191
814.085
837.04
862.29
889.792
918.55
944.549
962.921
951.876
974.331
648.35
646.974
651.467
658.273
666.688
676.028
686.158
697.17
709.226
722.525
737.239
753.507
771.439
791.144
812.718
836.31
862.071
889.767
918.363
944.134
963.122
964.277
982.377
647.388
646.893
650.702
656.655
664.243
672.953
682.685
693.496
705.506
718.89
733.814
750.409
768.779
789.017
811.163
835.242
861.275
888.872
917.017
942.461
961.997
969.172
992.363
646.658
646.977
649.981
655.14
661.974
670.06
679.361
689.925
701.83
715.247
730.337
747.223
765.997
786.738
809.416
833.925
860.159
887.591
915.257
940.338
960.06
972.751
1000.55
646.088
646.913
649.08
653.447
659.56
667.025
675.89
686.197
697.981
711.415
726.667
743.842
763.021
784.272
807.491
832.431
858.877
886.17
913.402
938.006
957.263
973.894
1002.69
645.664
646.352
647.455
650.921
656.348
663.282
671.796
681.919
693.63
707.132
722.608
740.143
759.797
781.622
805.423
830.812
857.491
884.703
911.561
935.499
953.37
968.659
992.998
336.204
336.09
335.947
335.747
335.457
335.076
334.64
334.201
333.811
333.508
333.321
333.255
333.308
333.458
333.67
334.266
336.346
340.358
343.387
336.214
336.102
335.974
335.78
335.483
335.088
334.638
334.19
333.793
333.486
333.297
333.234
333.284
333.419
333.597
334.06
335.871
339.781
343.27
336.245
336.137
336.006
335.793
335.472
335.061
334.607
334.161
333.765
333.455
333.265
333.202
333.242
333.344
333.464
333.743
335.052
338.668
343.232
336.299
336.182
336.029
335.782
335.434
335.011
334.557
334.113
333.717
333.402
333.206
333.142
333.166
333.215
333.259
333.341
334.029
337.147
343.686
336.368
336.227
336.043
335.761
335.388
334.954
334.495
334.049
333.651
333.326
333.126
333.063
333.072
333.062
333.025
332.987
333.073
334.44
345.059
336.45
336.27
336.049
335.735
335.342
334.895
334.429
333.978
333.577
333.241
333.036
332.979
332.982
332.926
332.829
332.758
332.735
329.728
346.405
336.548
336.313
336.047
335.707
335.297
334.838
334.363
333.906
333.504
333.16
332.961
332.913
332.905
332.813
332.754
332.944
333.55
327.29
350.291
336.646
336.333
336.041
335.68
335.257
334.787
334.303
333.838
333.434
333.075
332.874
332.858
332.859
332.822
333.169
335.193
339.175
333.228
366.641
642.083
633.493
627.11
631.401
640.307
650.94
662.268
674.002
685.867
699.503
715.361
733.518
754.051
777.016
801.958
828.152
855.252
882.461
908.982
931.985
947.124
949.597
929.489
310.603
258.555
233.516
247.804
275.791
311.579
354.946
407.269
464.737
520.423
579.048
639.13
698.108
752.311
794.684
824.49
853.336
881.054
909.177
934.554
952.817
961.771
967.552
0.648266
0.845087
0.931603
0.9291
0.912128
0.899468
0.888736
0.902001
6.65942
28.7248
61.3612
108.025
176.958
287.267
458.411
649.588
830.562
882.711
914.662
944.62
967.717
986.535
1004.48
0.847983
0.841229
0.856743
0.868102
0.876345
0.882444
0.886855
0.892003
0.899207
0.890202
0.887614
0.88945
0.891308
0.89098
1.30525
33.9178
126.912
332.659
703.786
968.843
990.909
1012.99
1033.5
0.800556
0.812376
0.830872
0.844704
0.85242
0.857404
0.861886
0.867299
0.874519
0.877941
0.877239
0.874541
0.872117
0.874595
0.889203
0.881202
0.784007
0.721352
43.2416
204.92
510.828
840.883
1079.6
0.803685
0.806643
0.815254
0.824184
0.830172
0.834473
0.838413
0.8427
0.846918
0.84955
0.850807
0.851366
0.85195
0.853541
0.854237
0.842719
0.831385
0.825107
0.745783
0.566344
5.70703
64.3563
227.746
0.792192
0.794973
0.800029
0.805746
0.810444
0.814335
0.817926
0.821445
0.824569
0.826966
0.828814
0.830221
0.831169
0.831371
0.828974
0.818451
0.804743
0.797295
0.799896
0.790905
0.751581
0.62761
0.479105
0.778362
0.780585
0.7839
0.787879
0.791618
0.795063
0.798364
0.801556
0.804466
0.806931
0.808911
0.810324
0.810965
0.810377
0.807357
0.799307
0.787135
0.774111
0.757769
0.736975
0.741766
0.770064
0.773617
0.763291
0.765121
0.767218
0.769955
0.7729
0.775904
0.778939
0.781948
0.784792
0.787317
0.789395
0.790863
0.791467
0.790794
0.788119
0.782377
0.773825
0.763721
0.751607
0.736465
0.72386
0.712748
0.697794
0.747318
0.748605
0.749853
0.751754
0.754123
0.756779
0.759607
0.762498
0.765316
0.767905
0.770111
0.771744
0.772556
0.772219
0.770307
0.766414
0.760753
0.753946
0.74614
0.737575
0.730174
0.724005
0.718666
0.730815
0.731504
0.732096
0.733426
0.735384
0.737774
0.740446
0.743265
0.746087
0.748757
0.751113
0.752968
0.754108
0.754296
0.753306
0.751022
0.747681
0.743764
0.739677
0.736011
0.734022
0.733989
0.736149
0.713908
0.714058
0.714217
0.715132
0.716781
0.718959
0.721503
0.724268
0.727106
0.729862
0.732377
0.734483
0.736006
0.736791
0.736744
0.735911
0.734572
0.733183
0.732236
0.732359
0.734435
0.738742
0.745538
0.696648
0.696457
0.696296
0.696924
0.698335
0.700339
0.702772
0.705486
0.708333
0.711166
0.713835
0.716197
0.718119
0.71951
0.720369
0.720841
0.721253
0.722069
0.72381
0.727065
0.732481
0.740263
0.750701
0.679093
0.678688
0.678331
0.678767
0.68
0.681861
0.684193
0.686853
0.689697
0.692585
0.695386
0.697986
0.700291
0.702263
0.703964
0.705604
0.707546
0.710265
0.714278
0.720127
0.728309
0.738921
0.75217
0.661207
0.660704
0.660259
0.660582
0.661686
0.663429
0.665669
0.668268
0.671089
0.674005
0.676907
0.679708
0.682355
0.684857
0.687323
0.690002
0.693278
0.697628
0.703546
0.711509
0.721902
0.734709
0.750012
0.642938
0.642431
0.641988
0.642262
0.643277
0.644925
0.647079
0.649608
0.652388
0.655304
0.658269
0.661226
0.664162
0.667127
0.67027
0.673864
0.678298
0.684034
0.691531
0.701192
0.713293
0.727709
0.744391
0.624231
0.623789
0.623415
0.623689
0.62465
0.62622
0.62829
0.630741
0.633462
0.636353
0.639349
0.642421
0.645593
0.648953
0.652682
0.65707
0.6625
0.669405
0.67819
0.689177
0.702534
0.718032
0.735494
0.605045
0.604707
0.604441
0.604748
0.605681
0.607187
0.609176
0.611543
0.614189
0.617034
0.620032
0.623184
0.626546
0.630241
0.634476
0.639548
0.645827
0.653705
0.66352
0.675504
0.689719
0.70584
0.723572
0.585351
0.58513
0.584989
0.585346
0.586267
0.58772
0.589629
0.591905
0.594461
0.59724
0.600216
0.603417
0.606931
0.61091
0.615581
0.621244
0.628243
0.636922
0.647542
0.660239
0.674972
0.691331
0.708927
0.565133
0.565024
0.565002
0.565414
0.566331
0.567737
0.569567
0.571744
0.574199
0.57689
0.579819
0.583041
0.586672
0.590891
0.595938
0.602109
0.609718
0.61905
0.630283
0.643455
0.65843
0.674727
0.69188
0.544379
0.544364
0.544447
0.544908
0.545823
0.547185
0.548936
0.551008
0.553348
0.555934
0.558793
0.562008
0.565723
0.570141
0.575512
0.58212
0.590245
0.600104
0.611793
0.625254
0.640266
0.656289
0.6728
0.523082
0.523136
0.523301
0.523799
0.524712
0.52603
0.527702
0.529666
0.531884
0.534351
0.53712
0.540302
0.544071
0.548649
0.554296
0.561281
0.569843
0.580131
0.592155
0.605771
0.620686
0.636321
0.65211
0.501239
0.501334
0.501557
0.502077
0.502981
0.504255
0.505847
0.507704
0.509796
0.512136
0.514801
0.51793
0.521726
0.526431
0.532312
0.539622
0.548557
0.559195
0.571465
0.585149
0.599899
0.615116
0.630217
0.478851
0.478961
0.479216
0.479741
0.480627
0.481854
0.483367
0.485118
0.487083
0.489293
0.491846
0.494908
0.49871
0.503516
0.509597
0.517189
0.526439
0.537362
0.549812
0.563509
0.57807
0.592901
0.607429
0.455922
0.456028
0.45629
0.456799
0.457657
0.458833
0.460267
0.46191
0.463749
0.465828
0.468267
0.471259
0.475057
0.479947
0.4862
0.494032
0.503545
0.514692
0.527267
0.540943
0.555321
0.569829
0.583941
0.432464
0.432552
0.432796
0.433272
0.434091
0.435208
0.436558
0.438091
0.439804
0.441756
0.444086
0.44701
0.450803
0.455764
0.462164
0.470197
0.479924
0.491245
0.503899
0.51753
0.53174
0.546002
0.559855
0.408492
0.408555
0.40876
0.409185
0.409953
0.411004
0.412262
0.413682
0.415268
0.417097
0.419326
0.422189
0.425979
0.431
0.437522
0.44572
0.455617
0.467066
0.479765
0.493334
0.507395
0.52148
0.535211
0.384024
0.384054
0.384206
0.384566
0.385273
0.386248
0.387407
0.388709
0.390171
0.391883
0.394018
0.396827
0.400611
0.405681
0.412302
0.420628
0.430653
0.442185
0.45489
0.46838
0.482305
0.496271
0.509988
0.359078
0.359068
0.359157
0.359444
0.360083
0.360974
0.362028
0.363211
0.364551
0.366151
0.368198
0.370953
0.374727
0.379832
0.386526
0.394942
0.405041
0.416599
0.429258
0.442635
0.456424
0.470308
0.484085
0.333671
0.333618
0.33364
0.333851
0.334415
0.335216
0.336163
0.337227
0.338447
0.339938
0.341898
0.344597
0.348354
0.353478
0.360212
0.368667
0.378771
0.390276
0.402812
0.416019
0.429641
0.443447
0.457317
0.307833
0.30773
0.307687
0.307819
0.308304
0.309011
0.309849
0.310795
0.311896
0.313278
0.31515
0.317791
0.321521
0.32664
0.333373
0.341798
0.351819
0.363167
0.375475
0.388415
0.401796
0.415476
0.429418
0.281596
0.281435
0.281329
0.281378
0.281778
0.282389
0.283117
0.283944
0.284928
0.286202
0.287986
0.290565
0.294253
0.299337
0.306012
0.314328
0.324159
0.335222
0.347162
0.359691
0.372693
0.386132
0.400061
0.254992
0.254757
0.254593
0.254552
0.254863
0.255375
0.255991
0.256703
0.257572
0.258742
0.260438
0.262945
0.266568
0.271574
0.278128
0.286245
0.295767
0.306397
0.317793
0.329722
0.342153
0.355166
0.368925
0.228065
0.227707
0.227502
0.227359
0.227575
0.227987
0.228496
0.229097
0.229858
0.230928
0.232533
0.234953
0.238481
0.243359
0.249723
0.257545
0.266631
0.276664
0.287321
0.29843
0.310056
0.322401
0.335754
0.200911
0.200263
0.200066
0.199809
0.199929
0.200245
0.200655
0.201157
0.201821
0.202796
0.204304
0.206617
0.210012
0.21471
0.220807
0.228234
0.236751
0.246022
0.255744
0.265807
0.276376
0.287773
0.300417
0.173641
0.172346
0.172268
0.1719
0.171933
0.172171
0.172501
0.17292
0.1735
0.174386
0.17579
0.177973
0.181195
0.18565
0.191396
0.198319
0.206138
0.214496
0.223105
0.231914
0.241183
0.251353
0.262962
0.146292
0.143805
0.144011
0.143579
0.143568
0.143767
0.144047
0.144407
0.144919
0.14572
0.147012
0.14904
0.152042
0.15618
0.161479
0.167786
0.174787
0.182104
0.189457
0.196852
0.204633
0.213344
0.223619
0.118881
0.114517
0.115133
0.114753
0.114773
0.114988
0.115257
0.115585
0.116045
0.116768
0.117939
0.119782
0.122505
0.126242
0.130987
0.136562
0.142631
0.148804
0.154815
0.16071
0.166905
0.174015
0.18273
0.091432
0.0846068
0.0856802
0.0855644
0.085688
0.0859548
0.0862422
0.0865612
0.0869862
0.0876372
0.0886799
0.0903057
0.092689
0.0959317
0.100008
0.104728
0.109756
0.114715
0.119364
0.123779
0.128403
0.133872
0.140841
0.0637686
0.0538491
0.0558385
0.056722
0.0570975
0.0574157
0.0577316
0.0580635
0.0584779
0.0590774
0.0599948
0.0613789
0.0633627
0.0660179
0.0693077
0.0730546
0.0769597
0.0806964
0.0840626
0.0871387
0.0903346
0.0942266
0.0993069
0.0371422
0.0189735
0.0240659
0.0278316
0.0288511
0.029261
0.0296184
0.0299861
0.0304162
0.0309833
0.031776
0.0328902
0.0344116
0.0363821
0.0387673
0.0414349
0.0441683
0.0467324
0.0489785
0.0509579
0.0529581
0.0554072
0.0588137
0.0186133
-0.0245187
-0.0129095
-0.00639483
-0.00491382
-0.00435266
-0.00393893
-0.00355099
-0.0031319
-0.00264086
-0.00204292
-0.00130428
-0.000395229
0.000698287
0.00196141
0.00334088
0.00474657
0.00607506
0.00724698
0.00824685
0.00913903
0.0100458
0.0111973
864.299
872.555
880.726
791.489
965.814
967.14
965.495
962.729
1013.22
1017.24
1021.4
1027.24
1044.95
1053.94
1064.45
1075.73
1087.94
1095.43
1105.47
1117.22
402.905
541.651
706.073
871.267
0.387463
2.30288
14.2163
41.0606
0.759775
0.736041
0.695303
0.646136
0.692887
0.702825
0.731019
0.764271
0.718122
0.717674
0.718557
0.720142
0.739925
0.742929
0.747323
0.751993
0.751882
0.756871
0.76364
0.771436
0.75974
0.76657
0.775151
0.784725
0.763193
0.771311
0.781122
0.791826
0.762394
0.771303
0.78178
0.793024
0.757562
0.766814
0.777444
0.788714
0.748933
0.758162
0.768561
0.779494
0.736874
0.745821
0.755742
0.766103
0.721796
0.730287
0.739582
0.74924
0.704087
0.711995
0.720579
0.729489
0.684193
0.691437
0.699269
0.707436
0.662657
0.669227
0.676314
0.683776
0.640018
0.646001
0.652426
0.659256
0.616692
0.622261
0.628193
0.634524
0.592918
0.598289
0.603954
0.609977
0.568777
0.574151
0.579781
0.585705
0.544251
0.549765
0.55553
0.561529
0.519253
0.524971
0.530945
0.537104
0.493619
0.499538
0.505696
0.512001
0.467129
0.473207
0.479463
0.48582
0.439493
0.445692
0.451958
0.458253
0.410365
0.416665
0.422884
0.429035
0.379386
0.385782
0.391957
0.397947
0.346243
0.352734
0.358924
0.364816
0.310743
0.317305
0.323583
0.329477
0.272872
0.279424
0.285809
0.291769
0.232827
0.239209
0.245607
0.251584
0.190974
0.196966
0.20314
0.208904
0.147763
0.15306
0.158647
0.163863
0.10436
0.108539
0.113141
0.117563
0.0628245
0.0659567
0.0691967
0.0720992
0.0129569
0.0143479
0.0158315
0.0172601
353.683
336.093
336.033
335.657
335.215
334.727
334.229
333.749
333.336
332.929
332.706
332.856
333.144
334.045
355.553
414.991
447.657
442.961
541.363
621.754
335.386
335.786
335.609
335.274
334.808
334.333
333.901
333.511
334.06
355.226
394.487
455.046
582.274
783.687
931.45
976.886
997.61
1112.68
1033.59
748.348
384.264
335.261
334.919
334.515
334.125
333.605
350.851
580.333
864.311
967.655
1045.45
1128.13
1170.42
1222.45
1289.02
1400.9
1571.76
1094.21
1129.45
1043.12
752.995
469.073
389.693
399.652
489.37
820.924
1128.08
1175.95
1198.48
1228.54
1273.89
1329.52
1389.99
1465.41
1597.4
1681.15
1138
1166.99
1195.25
1217.21
1162.21
1092.87
1101.54
1157.61
1222.39
1225.93
1239.67
1274.51
1326.01
1391.18
1458.47
1517.78
1582
1698.17
1543.17
1052.32
1209.95
1224.74
1239.4
1253.52
1259.7
1258.13
1257.76
1252.8
1255.86
1252.26
1275.77
1361.45
1484.61
1572.27
1624.6
1657.72
1733.78
1447.71
128.261
310.139
530.489
721.36
863.341
923.958
918.293
880.033
781.033
607.471
454.432
467.097
583.435
882.003
1343.77
1668.77
1702.12
1720.66
1337.47
0.54584
0.491539
0.60847
8.91293
31.1201
52.4915
52.5206
42.9392
22.6041
5.19492
3.71576
9.18077
37.4765
222.91
717.982
1560.95
1724.24
1686
1092.82
0.804486
0.825697
0.81008
0.734927
0.633685
0.664919
0.923464
1.43215
2.06753
2.51793
3.11173
4.34845
10.2372
57.7364
884.711
1644.55
1756.27
1219.09
634.415
0.726021
0.734209
0.760286
0.836262
0.961377
1.1084
1.29117
1.55311
1.89144
2.26054
2.70397
2.90299
3.23741
50.6443
956.432
1685.27
1546.59
416.806
247.854
0.762215
0.791686
0.833158
0.894267
0.994084
1.12727
1.30232
1.52573
1.786
2.0668
2.37974
2.47219
2.0015
5.18573
558.683
1629.41
1253.94
249.812
250.045
0.787891
0.822954
0.872859
0.940746
1.03453
1.15869
1.31812
1.51083
1.71901
1.91075
2.05776
2.09739
1.72479
2.04634
183.592
1255.14
1399.98
254.367
255.402
0.803951
0.842692
0.896545
0.968282
1.06119
1.17755
1.31708
1.47342
1.62944
1.75116
1.78606
1.68169
1.44774
0.824943
26.4966
864.127
1493.79
814.59
253.179
0.812527
0.852721
0.90702
0.977384
1.065
1.16976
1.28847
1.41257
1.52537
1.59893
1.59358
1.43128
1.15045
0.672108
0.793118
257.065
1538.6
1438.01
267.812
0.814253
0.854165
0.906616
0.97271
1.05238
1.14436
1.24445
1.34404
1.42915
1.4796
1.46757
1.35129
1.13974
0.85959
0.754453
0.854064
578.892
1500.88
866.907
0.8097
0.848138
0.897389
0.957925
1.02901
1.10898
1.19383
1.27629
1.34605
1.3908
1.39706
1.3478
1.24196
1.09836
1.07772
0.975709
265.312
1550.52
1187.13
0.799698
0.835897
0.881235
0.935779
0.998537
1.06793
1.14079
1.21205
1.27549
1.32575
1.35998
1.37606
1.37431
1.35135
1.38808
1.35594
303.114
979.256
755.918
0.785165
0.818696
0.859842
0.908451
0.963539
1.02385
1.08735
1.1513
1.21339
1.27379
1.33694
1.41054
1.50041
1.58375
1.59851
1.69786
324.182
488.321
579.935
0.766956
0.79765
0.83462
0.877617
0.925805
0.978379
1.03426
1.09271
1.15449
1.22373
1.30928
1.42411
1.57962
1.75945
1.83582
1.73453
5.80522
494.872
763.468
0.745817
0.773725
0.806763
0.844642
0.886726
0.932619
0.981863
1.03488
1.09437
1.16661
1.2626
1.39766
1.58978
1.86041
2.09698
2.07458
2.42169
506.715
782.085
0.722457
0.747814
0.777355
0.810769
0.847605
0.887637
0.930657
0.977411
1.03077
1.09721
1.1873
1.3171
1.51646
1.82281
2.17682
2.39238
2.99472
109.564
797.078
0.697629
0.720805
0.747446
0.77722
0.809783
0.844892
0.882087
0.92136
0.964263
1.01483
1.07914
1.17105
1.31698
1.5867
2.02273
2.4683
2.8827
1.85545
810.399
0.672111
0.69356
0.718013
0.745154
0.774619
0.80602
0.838228
0.869573
0.898942
0.925566
0.948341
0.970183
0.999986
1.14127
1.69956
2.24968
3.37069
5.92426
745.863
0.646589
0.666816
0.689859
0.715467
0.743257
0.772524
0.801346
0.825959
0.841819
0.842126
0.814276
0.719243
0.599956
0.567882
0.72506
37.1131
22.8865
10.3006
413.493
0.621511
0.641047
0.663461
0.688629
0.716197
0.745163
0.773034
0.795531
0.835861
0.785066
0.71077
0.452605
0.249122
-0.0494991
170.721
450.689
173.143
14.1602
353.977
0.59699
0.616347
0.638832
0.664513
0.693081
0.72326
0.759137
0.78924
0.850292
0.803139
0.66339
0.261701
0.386182
18.1285
520.005
545.27
362.595
24.9043
563.86
0.57281
0.592414
0.615507
0.642366
0.672807
0.705335
0.799545
0.831785
0.845506
0.795668
0.612653
0.19831
0.404661
152.841
564.395
576.237
467.062
68.7655
607.327
0.548522
0.568644
0.592647
0.620986
0.653637
0.68916
0.792
0.918182
0.843405
0.734833
0.603176
0.266771
0.0138571
115.796
587.325
604.374
468.756
97.9611
649.863
0.523579
0.544308
0.569257
0.598972
0.633516
0.671637
0.747861
0.910581
0.797947
0.726092
0.628783
0.43156
0.217928
4.11048
540.525
628.965
444.648
121.239
374.137
0.497473
0.518718
0.544413
0.575059
0.610657
0.650007
0.691022
0.89585
0.748267
0.740834
0.681073
0.587772
0.536218
0.770816
481.992
651.692
425.16
127.576
151.814
0.469826
0.491356
0.517438
0.548399
0.583986
0.622688
0.65991
0.70832
0.991952
1.27893
0.709406
0.654395
0.609181
0.474941
491.959
674.267
381.847
114.809
129.83
0.440388
0.461912
0.487985
0.518697
0.553425
0.590068
0.623603
0.651627
1.8875
2.06112
2.00636
0.846933
0.683072
0.575808
576.852
694.841
318.878
108.042
430.293
0.409014
0.430251
0.455953
0.486025
0.519679
0.554712
0.587199
0.615764
1.38571
2.06502
2.08231
1.47643
0.756538
22.6725
669.81
713.652
297.991
107.298
555.337
0.375607
0.396288
0.42126
0.450305
0.482977
0.516818
0.550056
0.577954
0.594875
1.90724
2.07038
1.56491
0.679372
54.4434
712.789
731.455
306.173
109.098
575.117
0.340037
0.359898
0.383811
0.411646
0.442693
0.47541
0.508273
0.538611
0.558598
0.715851
1.5299
1.06392
0.594731
0.730199
671.449
747.446
346.919
111.851
596.478
0.302111
0.320854
0.343309
0.369456
0.398685
0.430065
0.461505
0.490747
0.513977
0.526219
0.536018
0.559017
0.59078
0.61627
410.906
760.656
561.484
114.351
619.299
0.261579
0.278833
0.299391
0.32338
0.350414
0.379801
0.410079
0.438759
0.462279
0.475791
0.476659
0.473412
0.45907
0.370557
0.0471956
676.537
719.839
132.695
640.648
0.218202
0.2335
0.251658
0.272943
0.297167
0.323877
0.352107
0.379678
0.402945
0.417501
0.419495
0.409927
0.393146
0.386171
0.359531
43.1516
677.87
232.836
653.254
0.172134
0.185058
0.200319
0.218301
0.238936
0.261973
0.286754
0.311754
0.334105
0.35014
0.355372
0.347333
0.329713
0.332413
0.416432
0.344257
138.443
214.184
539.187
0.124713
0.135048
0.147075
0.161249
0.177537
0.195816
0.215754
0.236395
0.255795
0.271087
0.278751
0.275656
0.258935
0.238213
0.277384
0.451209
-0.208307
154.011
151.85
0.0765495
0.0838447
0.0923335
0.102161
0.113337
0.125868
0.139709
0.154437
0.169021
0.181402
0.188694
0.187613
0.174782
0.147956
0.122751
0.330419
0.448263
43.4402
30.1564
0.0196021
0.0236798
0.0278394
0.0321209
0.036662
0.0415438
0.0468176
0.052544
0.058702
0.0652074
0.0706787
0.070296
0.0455733
-0.0649657
-0.0866796
0.0826832
0.405173
0.0158364
4.47094
)
;

boundaryField
{
    leftWall
    {
        type            fixedFluxPressure;
        gradient        uniform 0;
        value           nonuniform List<scalar> 
50
(
651.119
650.778
649.575
648.35
647.388
646.658
646.088
645.664
642.083
310.603
0.648266
0.847983
0.800556
0.803685
0.792192
0.778362
0.763291
0.747318
0.730815
0.713908
0.696648
0.679093
0.661207
0.642938
0.624231
0.605045
0.585351
0.565133
0.544379
0.523082
0.501239
0.478851
0.455922
0.432464
0.408492
0.384024
0.359078
0.333671
0.307833
0.281596
0.254992
0.228065
0.200911
0.173641
0.146292
0.118881
0.091432
0.0637686
0.0371422
0.0186133
)
;
    }
    rightWall
    {
        type            fixedFluxPressure;
        gradient        uniform 0;
        value           nonuniform List<scalar> 
50
(
343.387
343.27
343.232
343.686
345.059
346.405
350.291
366.641
541.363
1112.68
1571.76
1681.15
1543.17
1447.71
1337.47
1092.82
634.415
247.854
250.045
255.402
253.179
267.812
866.907
1187.13
755.918
579.935
763.468
782.085
797.078
810.399
745.863
413.493
353.977
563.86
607.327
649.863
374.137
151.814
129.83
430.293
555.337
575.117
596.478
619.299
640.648
653.254
539.187
151.85
30.1564
4.47094
)
;
    }
    lowerWall
    {
        type            fixedFluxPressure;
        gradient        uniform 0;
        value           nonuniform List<scalar> 
62
(
651.119
650.342
656.943
667.058
677.988
688.667
699.194
709.984
721.456
733.924
747.595
762.593
778.987
796.844
816.344
837.663
861.006
886.222
912.321
936.149
951.661
950.866
972.35
972.35
971.889
974.331
982.377
992.363
1000.55
1002.69
992.998
864.299
872.555
880.726
791.489
336.204
336.214
336.245
336.299
336.368
336.45
336.548
336.646
336.204
336.09
335.947
335.747
335.457
335.076
334.64
334.201
333.811
333.508
333.321
333.255
333.308
333.458
333.67
334.266
336.346
340.358
343.387
)
;
    }
    atmosphere
    {
        type            totalPressure;
        rho             rho;
        psi             none;
        gamma           1;
        p0              uniform 0;
        value           nonuniform List<scalar> 
46
(
-0.00530727
-0.0284713
-0.0283482
-0.0275113
-0.0269129
-0.0264563
-0.0260618
-0.0256801
-0.0252857
-0.0248676
-0.0244222
-0.0239488
-0.0234474
-0.0229172
-0.0223562
-0.0217624
-0.0211373
-0.0204938
-0.0198682
-0.0193336
-0.0190117
-0.0190714
-0.0196956
-0.0205189
-0.0207058
-0.0202937
-0.0192936
-0.0171574
-0.0152122
-0.0143133
-0.0141883
-0.0146476
-0.0156506
-0.0172671
-0.0195334
-0.0224785
-0.0260506
-0.0300208
-0.0339954
-0.0352849
-0.0216737
0
0
0
0
0
)
;
    }
    defaultFaces
    {
        type            empty;
    }
}


// ************************************************************************* //
