/*--------------------------------*- C++ -*----------------------------------*\
| =========                 |                                                 |
| \\      /  F ield         | OpenFOAM: The Open Source CFD Toolbox           |
|  \\    /   O peration     | Version:  v2012                                 |
|   \\  /    A nd           | Website:  www.openfoam.com                      |
|    \\/     M anipulation  |                                                 |
\*---------------------------------------------------------------------------*/
FoamFile
{
    version     2.0;
    format      ascii;
    class       volVectorField;
    location    "0.5";
    object      U;
}
// * * * * * * * * * * * * * * * * * * * * * * * * * * * * * * * * * * * * * //

dimensions      [0 1 -1 0 0 0 0];


internalField   nonuniform List<vector> 
2268
(
(-0.0478326 0.0178049 0)
(-0.0776079 0.00527842 0)
(-0.06574 -0.00899288 0)
(-0.0323378 -0.01372 0)
(0.00728778 -0.0142025 0)
(0.0470656 -0.0133748 0)
(0.0840064 -0.0120016 0)
(0.117146 -0.0105628 0)
(0.14639 -0.00923082 0)
(0.171993 -0.00803162 0)
(0.194239 -0.00693256 0)
(0.213261 -0.00586475 0)
(0.228935 -0.00471142 0)
(0.240637 -0.0032812 0)
(0.247462 -0.000952294 0)
(0.245493 0.00267417 0)
(0.230804 0.00821297 0)
(0.198899 0.0155326 0)
(0.145957 0.0234869 0)
(0.068117 0.0295773 0)
(-0.0267431 0.0299417 0)
(-0.142549 0.000486131 0)
(-0.0665018 -0.0495972 0)
(-0.0462962 0.039025 0)
(-0.0424717 0.00749637 0)
(-0.0245787 -0.0168568 0)
(0.00640168 -0.026604 0)
(0.0421856 -0.028795 0)
(0.0781264 -0.0276615 0)
(0.111784 -0.0252169 0)
(0.142251 -0.0224601 0)
(0.169361 -0.0197838 0)
(0.193222 -0.0172841 0)
(0.213967 -0.0149127 0)
(0.231616 -0.0125304 0)
(0.245982 -0.00989878 0)
(0.256567 -0.0066325 0)
(0.262398 -0.00193324 0)
(0.262829 0.00506867 0)
(0.255636 0.0152366 0)
(0.236848 0.0289475 0)
(0.201773 0.0453788 0)
(0.142057 0.0609941 0)
(0.0664198 0.0669858 0)
(-0.046209 0.0341613 0)
(-0.0104125 -0.0745648 0)
(-0.0279746 0.0528599 0)
(-0.0135686 0.00159537 0)
(0.0058711 -0.0286584 0)
(0.0352765 -0.0412251 0)
(0.0678451 -0.0441784 0)
(0.100215 -0.0424935 0)
(0.130553 -0.0389097 0)
(0.15816 -0.0348094 0)
(0.182871 -0.0307613 0)
(0.204707 -0.0269136 0)
(0.223696 -0.0231991 0)
(0.239775 -0.0194166 0)
(0.252726 -0.0152329 0)
(0.262108 -0.0101259 0)
(0.267134 -0.00326969 0)
(0.266979 0.00646373 0)
(0.26038 0.0202651 0)
(0.245437 0.0391145 0)
(0.220268 0.0626627 0)
(0.180018 0.086577 0)
(0.129383 0.0984316 0)
(0.0419508 0.0610456 0)
(0.0378191 -0.0700296 0)
(-0.00813533 0.0580847 0)
(0.0108252 -0.00598494 0)
(0.0325309 -0.0405857 0)
(0.0609913 -0.0553911 0)
(0.0907941 -0.0587568 0)
(0.119751 -0.0564301 0)
(0.146773 -0.0517592 0)
(0.171462 -0.046425 0)
(0.193697 -0.0411131 0)
(0.213432 -0.0359996 0)
(0.230607 -0.0309956 0)
(0.24509 -0.0258485 0)
(0.256647 -0.0201511 0)
(0.264904 -0.0132779 0)
(0.26925 -0.00429299 0)
(0.268961 0.00802387 0)
(0.263223 0.0249583 0)
(0.251123 0.0475996 0)
(0.232216 0.0757642 0)
(0.20426 0.105141 0)
(0.169037 0.122642 0)
(0.102941 0.0882848 0)
(0.0733175 -0.0399798 0)
(0.00782674 0.0519443 0)
(0.0319238 -0.0152176 0)
(0.0570828 -0.0530294 0)
(0.0850426 -0.068883 0)
(0.112227 -0.0720611 0)
(0.137776 -0.0689498 0)
(0.161449 -0.063293 0)
(0.183187 -0.0569079 0)
(0.202914 -0.0505097 0)
(0.220519 -0.0442725 0)
(0.235856 -0.0380858 0)
(0.248735 -0.0316624 0)
(0.258917 -0.0245509 0)
(0.26611 -0.016063 0)
(0.269879 -0.00518141 0)
(0.269677 0.00935259 0)
(0.265013 0.0288012 0)
(0.255541 0.0541752 0)
(0.241509 0.0852431 0)
(0.222012 0.118091 0)
(0.196698 0.140928 0)
(0.14572 0.11664 0)
(0.0983131 0.00675837 0)
(0.0178026 0.0379205 0)
(0.0499508 -0.0277298 0)
(0.0801879 -0.0662427 0)
(0.107897 -0.0816068 0)
(0.132249 -0.0838373 0)
(0.154233 -0.0797858 0)
(0.17452 -0.0732818 0)
(0.193332 -0.0660662 0)
(0.21059 -0.0587868 0)
(0.22609 -0.0515919 0)
(0.239604 -0.0443536 0)
(0.250888 -0.0367702 0)
(0.259709 -0.0283806 0)
(0.265875 -0.0184749 0)
(0.269133 -0.00598207 0)
(0.269126 0.0103679 0)
(0.265622 0.0317432 0)
(0.25863 0.0590135 0)
(0.248786 0.0918506 0)
(0.235938 0.127 0)
(0.218176 0.154968 0)
(0.179511 0.145589 0)
(0.120405 0.0685809 0)
(0.023075 0.0188447 0)
(0.0663024 -0.0440033 0)
(0.102762 -0.0803177 0)
(0.129715 -0.0933497 0)
(0.150547 -0.093885 0)
(0.168707 -0.0888579 0)
(0.185635 -0.0817272 0)
(0.201643 -0.0739271 0)
(0.216548 -0.0659665 0)
(0.230029 -0.0579663 0)
(0.241773 -0.0497956 0)
(0.251487 -0.041162 0)
(0.258955 -0.0316337 0)
(0.264105 -0.0205228 0)
(0.26688 -0.00672097 0)
(0.267112 0.0110486 0)
(0.264777 0.0338256 0)
(0.260125 0.0623163 0)
(0.254084 0.0960637 0)
(0.247106 0.132603 0)
(0.236544 0.165179 0)
(0.210876 0.173748 0)
(0.143948 0.142886 0)
(0.0265632 -0.0041075 0)
(0.0842676 -0.0646759 0)
(0.125855 -0.0953817 0)
(0.150067 -0.104052 0)
(0.166348 -0.10234 0)
(0.180559 -0.0964628 0)
(0.194359 -0.0889577 0)
(0.207839 -0.0807757 0)
(0.220612 -0.0722655 0)
(0.232232 -0.0635423 0)
(0.242307 -0.0544922 0)
(0.250501 -0.0448604 0)
(0.256621 -0.0342933 0)
(0.260742 -0.0221832 0)
(0.263025 -0.0073914 0)
(0.263488 0.0113925 0)
(0.262272 0.0350651 0)
(0.259788 0.0641752 0)
(0.257256 0.098011 0)
(0.255803 0.134833 0)
(0.25329 0.170444 0)
(0.241902 0.195742 0)
(0.184337 0.239924 0)
(0.135515 -0.0726722 0)
(0.235715 -0.0165376 0)
(0.140073 0.0317495 0)
(-0.0990617 0.0709115 0)
(-0.445739 0.0962919 0)
(-0.833543 0.103876 0)
(-1.21366 0.0977304 0)
(-1.5532 0.0831534 0)
(-1.83436 0.0648075 0)
(-2.05261 0.0460062 0)
(-2.21071 0.0284755 0)
(-2.31859 0.0152762 0)
(-2.39617 0.00898296 0)
(-2.48109 0.00916875 0)
(-2.62704 0.0127234 0)
(-2.79973 0.00537932 0)
(-2.68572 -0.0704454 0)
(-1.92084 -0.251754 0)
(-0.660382 -0.344528 0)
(0.0271599 -0.107696 0)
(0.000362304 0.0331079 0)
(-0.20749 0.128461 0)
(-0.541898 0.205398 0)
(-0.93047 0.243921 0)
(-1.29076 0.244109 0)
(-1.59027 0.219661 0)
(-1.82405 0.183551 0)
(-2.00017 0.144904 0)
(-2.13166 0.10904 0)
(-2.23081 0.0784064 0)
(-2.31157 0.0586617 0)
(-2.39035 0.0560337 0)
(-2.4861 0.0680164 0)
(-2.62099 0.0798414 0)
(-2.73447 0.0472899 0)
(-2.53458 -0.172617 0)
(-1.69219 -0.676437 0)
(-0.464391 -0.893134 0)
(-0.0498421 -0.0779091 0)
(-0.156955 0.10705 0)
(-0.406922 0.243883 0)
(-0.710752 0.340785 0)
(-1.00684 0.374962 0)
(-1.25922 0.357399 0)
(-1.4707 0.312343 0)
(-1.64876 0.257355 0)
(-1.79901 0.203281 0)
(-1.92509 0.155653 0)
(-2.02848 0.116402 0)
(-2.11341 0.0920417 0)
(-2.1908 0.0904802 0)
(-2.27162 0.103878 0)
(-2.35572 0.0966725 0)
(-2.37871 -0.00656555 0)
(-2.09628 -0.390455 0)
(-1.29385 -1.13435 0)
(-0.243545 -1.34257 0)
(-0.0833525 -0.0259919 0)
(-0.215388 0.19299 0)
(-0.449401 0.352684 0)
(-0.692594 0.453065 0)
(-0.911132 0.475754 0)
(-1.10208 0.444197 0)
(-1.27696 0.38787 0)
(-1.43725 0.323306 0)
(-1.57931 0.25995 0)
(-1.69904 0.203206 0)
(-1.79124 0.154247 0)
(-1.85369 0.121699 0)
(-1.89305 0.115354 0)
(-1.91198 0.122709 0)
(-1.88998 0.0884847 0)
(-1.78522 -0.0759087 0)
(-1.51634 -0.561984 0)
(-0.967857 -1.43443 0)
(-0.0942931 -1.64783 0)
(-0.0741962 0.0307426 0)
(-0.191052 0.273096 0)
(-0.388309 0.442712 0)
(-0.578577 0.539331 0)
(-0.749166 0.553227 0)
(-0.907203 0.515813 0)
(-1.06125 0.455502 0)
(-1.20675 0.385227 0)
(-1.33461 0.313026 0)
(-1.43781 0.245427 0)
(-1.50698 0.182426 0)
(-1.53296 0.134711 0)
(-1.51599 0.113148 0)
(-1.45081 0.100162 0)
(-1.29196 0.0257029 0)
(-0.999634 -0.18546 0)
(-0.681382 -0.649936 0)
(-0.71185 -1.56597 0)
(0.0403409 -1.88078 0)
(-0.0285006 0.0719545 0)
(-0.106305 0.338917 0)
(-0.265221 0.513932 0)
(-0.414675 0.607189 0)
(-0.553365 0.616662 0)
(-0.686971 0.577647 0)
(-0.820319 0.515692 0)
(-0.94589 0.440175 0)
(-1.05176 0.357955 0)
(-1.1309 0.277859 0)
(-1.17125 0.196842 0)
(-1.15749 0.126732 0)
(-1.0831 0.079598 0)
(-0.942342 0.0314353 0)
(-0.680871 -0.10449 0)
(-0.249064 -0.375808 0)
(0.263804 -0.765958 0)
(-0.453094 -1.62545 0)
(0.191794 -2.07187 0)
(0.0496099 0.0890615 0)
(0.0176581 0.393583 0)
(-0.106102 0.568835 0)
(-0.221087 0.661032 0)
(-0.332762 0.668908 0)
(-0.44108 0.629483 0)
(-0.5487 0.566005 0)
(-0.647294 0.484889 0)
(-0.722936 0.392353 0)
(-0.771751 0.300962 0)
(-0.78211 0.198511 0)
(-0.731875 0.0961484 0)
(-0.606606 0.011993 0)
(-0.403738 -0.0826763 0)
(-0.0696326 -0.280345 0)
(0.284716 -0.563221 0)
(0.657543 -0.788225 0)
(-0.168398 -1.3825 0)
(0.330218 -2.22486 0)
(0.22592 -0.0193369 0)
(0.148584 0.465196 0)
(0.0680961 0.611187 0)
(-0.007803 0.701757 0)
(-0.0900038 0.708987 0)
(-0.168235 0.668542 0)
(-0.243091 0.602162 0)
(-0.30543 0.513603 0)
(-0.337656 0.408585 0)
(-0.340834 0.3097 0)
(-0.311772 0.190956 0)
(-0.232163 0.0459853 0)
(-0.0706218 -0.0969218 0)
(0.18214 -0.234607 0)
(0.522901 -0.380944 0)
(0.565447 -0.541794 0)
(0.589142 -0.700058 0)
(0.117017 -1.07934 0)
(0.43429 -2.17039 0)
(0.039383 -0.0530559 0)
(0.120506 -0.110571 0)
(0.160436 -0.122225 0)
(0.175457 -0.119812 0)
(0.184241 -0.114033 0)
(0.193354 -0.107101 0)
(0.203388 -0.0992595 0)
(0.21378 -0.09062 0)
(0.223846 -0.0813162 0)
(0.233025 -0.0714738 0)
(0.240815 -0.0610163 0)
(0.246816 -0.0497749 0)
(0.250889 -0.0376024 0)
(0.253373 -0.0241609 0)
(0.254838 -0.00830461 0)
(0.255591 0.0114249 0)
(0.255971 0.0356885 0)
(0.256497 0.0649114 0)
(0.258859 0.0975327 0)
(0.26538 0.132576 0)
(0.276826 0.168523 0)
(0.293284 0.204744 0)
(0.327312 0.278189 0)
(0.0888993 -0.135579 0)
(0.175667 -0.180881 0)
(0.192265 -0.152887 0)
(0.188606 -0.131995 0)
(0.190302 -0.122421 0)
(0.196879 -0.116015 0)
(0.20521 -0.109088 0)
(0.213552 -0.100815 0)
(0.22133 -0.0912525 0)
(0.228582 -0.0806174 0)
(0.234484 -0.0687958 0)
(0.238312 -0.0556739 0)
(0.239911 -0.0413779 0)
(0.240019 -0.026182 0)
(0.239926 -0.00943369 0)
(0.24058 0.0102982 0)
(0.242546 0.0335129 0)
(0.245646 0.0613088 0)
(0.252001 0.0896248 0)
(0.264625 0.118597 0)
(0.283627 0.148191 0)
(0.306465 0.17545 0)
(0.341894 0.203977 0)
(0.173406 -0.251881 0)
(0.160959 -0.165351 0)
(0.162881 -0.128759 0)
(0.172809 -0.120561 0)
(0.182148 -0.116287 0)
(0.190171 -0.111882 0)
(0.197451 -0.105502 0)
(0.202024 -0.0969935 0)
(0.20345 -0.0889749 0)
(0.209115 -0.0798944 0)
(0.214878 -0.0683774 0)
(0.218784 -0.0550252 0)
(0.220678 -0.0407478 0)
(0.221506 -0.0268866 0)
(0.221891 -0.011488 0)
(0.22303 0.00800799 0)
(0.225595 0.0310106 0)
(0.229392 0.0568646 0)
(0.238419 0.0780374 0)
(0.254777 0.0989403 0)
(0.275944 0.123125 0)
(0.299247 0.1449 0)
(0.327683 0.163857 0)
(-0.0509671 -0.553463 0)
(-0.00058297 -0.255926 0)
(0.0401883 -0.140412 0)
(0.0796679 -0.129919 0)
(0.111485 -0.136815 0)
(0.137137 -0.137937 0)
(0.158113 -0.130827 0)
(0.17692 -0.113709 0)
(0.193103 -0.0982815 0)
(0.2001 -0.086584 0)
(0.203487 -0.0709409 0)
(0.205808 -0.0549763 0)
(0.207176 -0.0389181 0)
(0.206378 -0.0243136 0)
(0.196402 -0.009302 0)
(0.191381 0.00790535 0)
(0.194824 0.0277567 0)
(0.207117 0.051044 0)
(0.226093 0.0671706 0)
(0.246009 0.0840864 0)
(0.267629 0.102994 0)
(0.293101 0.11963 0)
(0.322326 0.135836 0)
(-0.0825153 -0.301427 0)
(-0.0564826 -0.253724 0)
(-0.0127129 -0.20998 0)
(0.0293709 -0.188249 0)
(0.0640767 -0.17461 0)
(0.091619 -0.162305 0)
(0.113998 -0.149127 0)
(0.133307 -0.134369 0)
(0.150756 -0.120098 0)
(0.165732 -0.104994 0)
(0.177738 -0.0862094 0)
(0.186518 -0.064591 0)
(0.191649 -0.0413274 0)
(0.192818 -0.0167906 0)
(0.193456 0.0118724 0)
(0.182677 0.00960719 0)
(0.177086 0.0232946 0)
(0.184922 0.0452827 0)
(0.206358 0.0524341 0)
(0.230617 0.0666203 0)
(0.260727 0.0852143 0)
(0.293528 0.101731 0)
(0.326613 0.116935 0)
(-0.0249737 -0.271609 0)
(-0.0299806 -0.274591 0)
(-0.00752413 -0.244441 0)
(0.0199087 -0.220371 0)
(0.0462751 -0.201269 0)
(0.0692489 -0.184026 0)
(0.0891664 -0.166953 0)
(0.10699 -0.149304 0)
(0.123314 -0.13116 0)
(0.138038 -0.112393 0)
(0.150982 -0.092397 0)
(0.162176 -0.0708317 0)
(0.171819 -0.0475966 0)
(0.180822 -0.0228471 0)
(0.19159 0.00147191 0)
(0.2001 0.0122322 0)
(0.206668 0.0074092 0)
(0.223329 0.006715 0)
(0.211089 0.0250378 0)
(0.217713 0.0479273 0)
(0.243792 0.0656855 0)
(0.279144 0.0752405 0)
(0.316785 0.0871434 0)
(-0.00926282 -0.268726 0)
(-0.0101312 -0.28277 0)
(0.00274715 -0.264255 0)
(0.0204009 -0.242845 0)
(0.0391773 -0.222695 0)
(0.0571183 -0.203564 0)
(0.0738478 -0.184732 0)
(0.089556 -0.165697 0)
(0.104389 -0.146245 0)
(0.118356 -0.126123 0)
(0.131566 -0.10498 0)
(0.144304 -0.0826154 0)
(0.157038 -0.0591635 0)
(0.170608 -0.0353807 0)
(0.185948 -0.0135656 0)
(0.200644 0.00102118 0)
(0.211804 0.00958494 0)
(0.221504 0.0154622 0)
(0.23038 0.00832295 0)
(0.249683 -0.0170362 0)
(0.272086 -0.0154736 0)
(0.280283 0.031929 0)
(0.304484 0.0584072 0)
(-0.0037974 -0.257272 0)
(-0.00156151 -0.287988 0)
(0.00781971 -0.276716 0)
(0.0198269 -0.258188 0)
(0.0333754 -0.238643 0)
(0.047347 -0.219233 0)
(0.0612936 -0.199912 0)
(0.075107 -0.18043 0)
(0.0887678 -0.160563 0)
(0.102307 -0.140057 0)
(0.115882 -0.118696 0)
(0.129789 -0.0964586 0)
(0.144449 -0.0736691 0)
(0.160381 -0.0512033 0)
(0.177849 -0.0308104 0)
(0.195506 -0.0149449 0)
(0.211499 -0.00320707 0)
(0.226399 0.0061527 0)
(0.240787 0.0109559 0)
(0.251762 0.00752487 0)
(0.258586 0.000581885 0)
(0.273121 -0.0169492 0)
(0.30345 -0.0487793 0)
(0.00053647 -0.257901 0)
(0.0022781 -0.293433 0)
(0.00837454 -0.28536 0)
(0.0164348 -0.268947 0)
(0.0262412 -0.250591 0)
(0.0371699 -0.231802 0)
(0.0488371 -0.212832 0)
(0.0610546 -0.193601 0)
(0.0737459 -0.173958 0)
(0.0869268 -0.153746 0)
(0.100722 -0.132873 0)
(0.115357 -0.11143 0)
(0.131118 -0.0897861 0)
(0.148262 -0.0687076 0)
(0.166761 -0.049427 0)
(0.185818 -0.0333723 0)
(0.204351 -0.0208197 0)
(0.222221 -0.0114664 0)
(0.23938 -0.006381 0)
(0.254248 -0.00596547 0)
(0.267011 -0.00489357 0)
(0.280951 -0.00420285 0)
(0.294263 -0.0111357 0)
(0.00200097 -0.259688 0)
(0.0021262 -0.29681 0)
(0.0055195 -0.290775 0)
(0.0106913 -0.276361 0)
(0.0177044 -0.259579 0)
(0.0262175 -0.241978 0)
(0.0359413 -0.223941 0)
(0.0466953 -0.205507 0)
(0.0583942 -0.186616 0)
(0.0710388 -0.167209 0)
(0.0847135 -0.14729 0)
(0.099566 -0.127004 0)
(0.11576 -0.106703 0)
(0.133385 -0.0870048 0)
(0.152308 -0.0687818 0)
(0.17199 -0.0529678 0)
(0.191713 -0.0400472 0)
(0.211055 -0.0302269 0)
(0.229558 -0.0240637 0)
(0.246226 -0.0216553 0)
(0.260873 -0.021222 0)
(0.274015 -0.0227661 0)
(0.284304 -0.0266118 0)
(0.00168176 -0.261186 0)
(2.58331e-05 -0.297787 0)
(0.00107535 -0.293615 0)
(0.00393599 -0.28122 0)
(0.00869014 -0.266221 0)
(0.0151397 -0.250133 0)
(0.0230765 -0.233407 0)
(0.0323564 -0.21616 0)
(0.042907 -0.198413 0)
(0.0547234 -0.18018 0)
(0.0678585 -0.161525 0)
(0.0823993 -0.142617 0)
(0.0984231 -0.12377 0)
(0.115929 -0.105468 0)
(0.134747 -0.0883406 0)
(0.154464 -0.0730455 0)
(0.174528 -0.0600585 0)
(0.194418 -0.0497066 0)
(0.21355 -0.0423296 0)
(0.231142 -0.0379215 0)
(0.246768 -0.0356953 0)
(0.260132 -0.0351268 0)
(0.270592 -0.0352245 0)
(0.000534499 -0.261049 0)
(-0.0027136 -0.296663 0)
(-0.00356045 -0.29436 0)
(-0.00261551 -0.28398 0)
(0.000206174 -0.270846 0)
(0.00479899 -0.256437 0)
(0.0110197 -0.241241 0)
(0.0187658 -0.225433 0)
(0.0279863 -0.20909 0)
(0.0386783 -0.192278 0)
(0.0508749 -0.175096 0)
(0.064623 -0.157716 0)
(0.0799471 -0.140405 0)
(0.0967994 -0.123538 0)
(0.115004 -0.107574 0)
(0.134221 -0.0929914 0)
(0.153988 -0.0801869 0)
(0.173788 -0.0694635 0)
(0.193037 -0.0610459 0)
(0.211075 -0.0549059 0)
(0.227419 -0.0505829 0)
(0.241597 -0.0474483 0)
(0.253377 -0.0443098 0)
(-0.000785525 -0.258821 0)
(-0.00525582 -0.293972 0)
(-0.00754009 -0.293408 0)
(-0.00817382 -0.284963 0)
(-0.00702075 -0.273681 0)
(-0.00411368 -0.261004 0)
(0.000461658 -0.247442 0)
(0.0066429 -0.233209 0)
(0.014403 -0.218422 0)
(0.0237459 -0.203178 0)
(0.0346954 -0.187595 0)
(0.047275 -0.171834 0)
(0.0614807 -0.156115 0)
(0.0772443 -0.140722 0)
(0.0943982 -0.125989 0)
(0.112654 -0.11226 0)
(0.131615 -0.0998412 0)
(0.150815 -0.0889757 0)
(0.169723 -0.079823 0)
(0.187786 -0.0723618 0)
(0.20455 -0.0662839 0)
(0.219535 -0.0610085 0)
(0.232672 -0.0554052 0)
(-0.00188367 -0.254876 0)
(-0.00714721 -0.290124 0)
(-0.0104581 -0.291133 0)
(-0.0123483 -0.284463 0)
(-0.0126041 -0.27494 0)
(-0.0111962 -0.263963 0)
(-0.00815403 -0.252052 0)
(-0.00350132 -0.239442 0)
(0.00275687 -0.226275 0)
(0.0106341 -0.212668 0)
(0.0201519 -0.198741 0)
(0.0313231 -0.184638 0)
(0.0441304 -0.170535 0)
(0.0585011 -0.156641 0)
(0.0742831 -0.14319 0)
(0.0912305 -0.130423 0)
(0.109009 -0.118561 0)
(0.127214 -0.107788 0)
(0.145394 -0.0982226 0)
(0.163093 -0.0898621 0)
(0.179929 -0.082497 0)
(0.195475 -0.0756303 0)
(0.20976 -0.0682092 0)
(-0.00259236 -0.24978 0)
(-0.00824772 -0.285524 0)
(-0.0122248 -0.287894 0)
(-0.0150553 -0.282777 0)
(-0.0164496 -0.274854 0)
(-0.0163227 -0.265484 0)
(-0.014652 -0.255177 0)
(-0.0114233 -0.244173 0)
(-0.00661768 -0.232626 0)
(-0.000212469 -0.220659 0)
(0.00781451 -0.208389 0)
(0.0174732 -0.195939 0)
(0.0287433 -0.183444 0)
(0.0415561 -0.171049 0)
(0.0557791 -0.15891 0)
(0.0712058 -0.147185 0)
(0.0875584 -0.136025 0)
(0.104501 -0.125561 0)
(0.121664 -0.115891 0)
(0.138684 -0.107034 0)
(0.155263 -0.0988565 0)
(0.171055 -0.0909528 0)
(0.186159 -0.0823471 0)
(-0.00290665 -0.24411 0)
(-0.00861127 -0.280555 0)
(-0.0129432 -0.284022 0)
(-0.0164175 -0.280197 0)
(-0.018679 -0.273679 0)
(-0.0195939 -0.265778 0)
(-0.019092 -0.256979 0)
(-0.0171247 -0.247518 0)
(-0.0136516 -0.237543 0)
(-0.00863767 -0.227173 0)
(-0.00205695 -0.216518 0)
(0.00609948 -0.20568 0)
(0.0158138 -0.194754 0)
(0.0270271 -0.183835 0)
(0.0396275 -0.173015 0)
(0.0534455 -0.162387 0)
(0.0682558 -0.152043 0)
(0.0837884 -0.142078 0)
(0.099751 -0.132579 0)
(0.115869 -0.123593 0)
(0.131928 -0.115053 0)
(0.147666 -0.106641 0)
(0.163245 -0.0974519 0)
(-0.00290209 -0.238355 0)
(-0.0083899 -0.275536 0)
(-0.0128229 -0.279805 0)
(-0.0166787 -0.277 0)
(-0.0195505 -0.271673 0)
(-0.0212638 -0.265077 0)
(-0.021708 -0.257663 0)
(-0.0208051 -0.249645 0)
(-0.0184957 -0.241159 0)
(-0.0147335 -0.232314 0)
(-0.00948636 -0.223204 0)
(-0.00274165 -0.213908 0)
(0.0054862 -0.204491 0)
(0.0151495 -0.195003 0)
(0.0261584 -0.185485 0)
(0.0383769 -0.175979 0)
(0.0516272 -0.166536 0)
(0.0656994 -0.157225 0)
(0.0803729 -0.148132 0)
(0.0954517 -0.139337 0)
(0.110801 -0.130835 0)
(0.126239 -0.12239 0)
(0.141979 -0.113156 0)
(-0.00267534 -0.232881 0)
(-0.00776841 -0.270702 0)
(-0.0121137 -0.275476 0)
(-0.0161352 -0.273429 0)
(-0.0193891 -0.269079 0)
(-0.0216709 -0.263616 0)
(-0.0228389 -0.257446 0)
(-0.0227926 -0.250752 0)
(-0.0214569 -0.243649 0)
(-0.0187757 -0.236232 0)
(-0.0147108 -0.228575 0)
(-0.00924404 -0.220736 0)
(-0.00238248 -0.212749 0)
(0.00583657 -0.20463 0)
(0.0153435 -0.19638 0)
(0.0260336 -0.188001 0)
(0.0377707 -0.179513 0)
(0.0503987 -0.170973 0)
(0.0637597 -0.162477 0)
(0.0777274 -0.154137 0)
(0.0922376 -0.146013 0)
(0.107177 -0.137939 0)
(0.1228 -0.129109 0)
(-0.00231575 -0.22792 0)
(-0.0069246 -0.2662 0)
(-0.0110613 -0.271209 0)
(-0.0150847 -0.269684 0)
(-0.0185314 -0.266114 0)
(-0.0211786 -0.261616 0)
(-0.0228653 -0.256542 0)
(-0.0234758 -0.25104 0)
(-0.0229245 -0.245201 0)
(-0.0211479 -0.239099 0)
(-0.0181018 -0.232789 0)
(-0.0137623 -0.226306 0)
(-0.00812804 -0.21966 0)
(-0.0012244 -0.212835 0)
(0.0068966 -0.205802 0)
(0.0161579 -0.198533 0)
(0.0264601 -0.191031 0)
(0.0376928 -0.183346 0)
(0.0497528 -0.17559 0)
(0.0625732 -0.167919 0)
(0.0761491 -0.160447 0)
(0.0904236 -0.153067 0)
(0.105677 -0.144993 0)
(-0.00189725 -0.223592 0)
(-0.00600807 -0.262098 0)
(-0.00987854 -0.267116 0)
(-0.0137917 -0.265919 0)
(-0.017285 -0.262955 0)
(-0.0201297 -0.259266 0)
(-0.0221574 -0.255144 0)
(-0.0232466 -0.250698 0)
(-0.0233065 -0.245994 0)
(-0.022269 -0.241084 0)
(-0.0200855 -0.236004 0)
(-0.0167261 -0.230769 0)
(-0.0121818 -0.225363 0)
(-0.00646534 -0.219746 0)
(0.000387481 -0.213865 0)
(0.00832251 -0.207673 0)
(0.0172724 -0.201161 0)
(0.0271658 -0.194382 0)
(0.037945 -0.187472 0)
(0.0495926 -0.180628 0)
(0.0621519 -0.174017 0)
(0.0756099 -0.167576 0)
(0.0902589 -0.160508 0)
(-0.00147637 -0.219924 0)
(-0.00513045 -0.258392 0)
(-0.00873009 -0.263252 0)
(-0.0124668 -0.262238 0)
(-0.0159026 -0.259741 0)
(-0.0188148 -0.256721 0)
(-0.0210395 -0.253414 0)
(-0.0224577 -0.24989 0)
(-0.0229798 -0.246189 0)
(-0.0225367 -0.242342 0)
(-0.0210772 -0.238367 0)
(-0.0185668 -0.23426 0)
(-0.014989 -0.229985 0)
(-0.0103458 -0.225482 0)
(-0.00465696 -0.220677 0)
(0.00204267 -0.215511 0)
(0.00971158 -0.20997 0)
(0.0183115 -0.204118 0)
(0.0278223 -0.198119 0)
(0.0382664 -0.192211 0)
(0.0497258 -0.186607 0)
(0.0622204 -0.181273 0)
(0.076046 -0.175371 0)
(-0.00109816 -0.21687 0)
(-0.0043641 -0.255033 0)
(-0.00772698 -0.259631 0)
(-0.0112582 -0.258705 0)
(-0.0145706 -0.25657 0)
(-0.0174568 -0.254103 0)
(-0.0197679 -0.251485 0)
(-0.021396 -0.248752 0)
(-0.0222583 -0.245919 0)
(-0.0222893 -0.243002 0)
(-0.0214375 -0.240001 0)
(-0.0196654 -0.236897 0)
(-0.0169503 -0.233636 0)
(-0.0132849 -0.230142 0)
(-0.00867569 -0.226326 0)
(-0.0031399 -0.222118 0)
(0.00330188 -0.217508 0)
(0.0106376 -0.212576 0)
(0.0188778 -0.207515 0)
(0.0280773 -0.202604 0)
(0.0383484 -0.198099 0)
(0.0497366 -0.193975 0)
(0.0625364 -0.189325 0)
(-0.000785604 -0.214345 0)
(-0.00374587 -0.251948 0)
(-0.00692792 -0.256234 0)
(-0.010253 -0.255349 0)
(-0.0134076 -0.253505 0)
(-0.0162062 -0.251496 0)
(-0.018524 -0.249456 0)
(-0.0202715 -0.24739 0)
(-0.0213783 -0.245295 0)
(-0.0217865 -0.243172 0)
(-0.0214477 -0.24101 0)
(-0.0203236 -0.238777 0)
(-0.0183871 -0.236406 0)
(-0.0156231 -0.233807 0)
(-0.0120274 -0.230878 0)
(-0.00760239 -0.227548 0)
(-0.0023516 -0.223809 0)
(0.00373344 -0.219762 0)
(0.0106879 -0.215632 0)
(0.0185927 -0.211742 0)
(0.0275856 -0.208379 0)
(0.0377333 -0.205516 0)
(0.0493284 -0.202147 0)
(-0.000536691 -0.212242 0)
(-0.00327706 -0.249054 0)
(-0.00634619 -0.253023 0)
(-0.00948537 -0.252174 0)
(-0.012472 -0.25058 0)
(-0.0151473 -0.248959 0)
(-0.0174177 -0.2474 0)
(-0.0192181 -0.245886 0)
(-0.0204959 -0.244401 0)
(-0.0212049 -0.242937 0)
(-0.021303 -0.241477 0)
(-0.0207537 -0.239979 0)
(-0.0195276 -0.238367 0)
(-0.0176039 -0.236539 0)
(-0.0149695 -0.234388 0)
(-0.0116161 -0.231838 0)
(-0.00753283 -0.228891 0)
(-0.00269518 -0.225669 0)
(0.00295075 -0.222434 0)
(0.00950825 -0.219551 0)
(0.0171374 -0.217339 0)
(0.0259269 -0.21575 0)
(0.0361705 -0.213664 0)
(-0.000326914 -0.210464 0)
(-0.00293449 -0.246264 0)
(-0.00596346 -0.249948 0)
(-0.00895089 -0.249162 0)
(-0.011775 -0.247808 0)
(-0.0143095 -0.246525 0)
(-0.0164974 -0.245367 0)
(-0.0183031 -0.2443 0)
(-0.0196961 -0.243303 0)
(-0.0206452 -0.242366 0)
(-0.021118 -0.241469 0)
(-0.0210824 -0.240567 0)
(-0.0205089 -0.239577 0)
(-0.0193733 -0.23839 0)
(-0.0176564 -0.236894 0)
(-0.0153414 -0.235014 0)
(-0.0124073 -0.232761 0)
(-0.0088171 -0.230285 0)
(-0.00450203 -0.227884 0)
(0.000659828 -0.225968 0)
(0.00685072 -0.224884 0)
(0.0141852 -0.224564 0)
(0.0229673 -0.223757 0)
(-0.000110949 -0.208942 0)
(-0.00268977 -0.243491 0)
(-0.00574717 -0.246955 0)
(-0.00862021 -0.24629 0)
(-0.0112944 -0.245189 0)
(-0.013681 -0.244214 0)
(-0.015764 -0.243389 0)
(-0.017541 -0.242675 0)
(-0.0190061 -0.242053 0)
(-0.0201459 -0.241515 0)
(-0.0209399 -0.241045 0)
(-0.0213632 -0.240597 0)
(-0.0213889 -0.240089 0)
(-0.0209917 -0.239407 0)
(-0.0201488 -0.238435 0)
(-0.018838 -0.237101 0)
(-0.0170311 -0.235432 0)
(-0.0146828 -0.2336 0)
(-0.0117127 -0.231949 0)
(-0.00798327 -0.230935 0)
(-0.00329063 -0.230938 0)
(0.00251252 -0.231873 0)
(0.00975495 -0.232359 0)
(0.000142357 -0.207648 0)
(-0.00252054 -0.240653 0)
(-0.00566347 -0.243989 0)
(-0.00845155 -0.243532 0)
(-0.0109871 -0.242718 0)
(-0.0132224 -0.242035 0)
(-0.0151857 -0.241489 0)
(-0.016909 -0.241046 0)
(-0.0184117 -0.240692 0)
(-0.0196994 -0.240431 0)
(-0.0207655 -0.240255 0)
(-0.0215942 -0.240123 0)
(-0.0221641 -0.239954 0)
(-0.0224515 -0.239635 0)
(-0.0224325 -0.23905 0)
(-0.0220822 -0.238131 0)
(-0.0213687 -0.23692 0)
(-0.0202418 -0.235618 0)
(-0.0186143 -0.234611 0)
(-0.0163371 -0.234409 0)
(-0.0131861 -0.235439 0)
(-0.00897499 -0.23761 0)
(-0.00333283 -0.23943 0)
(0.000420266 -0.206565 0)
(-0.00241914 -0.23768 0)
(-0.00568245 -0.241012 0)
(-0.00839734 -0.240871 0)
(-0.0107974 -0.240392 0)
(-0.012878 -0.239996 0)
(-0.0147113 -0.239686 0)
(-0.0163618 -0.239437 0)
(-0.0178733 -0.239256 0)
(-0.0192698 -0.239159 0)
(-0.0205593 -0.23915 0)
(-0.0217372 -0.239199 0)
(-0.0227899 -0.23923 0)
(-0.023698 -0.239132 0)
(-0.0244394 -0.238793 0)
(-0.0249887 -0.238152 0)
(-0.0253139 -0.237263 0)
(-0.0253642 -0.236358 0)
(-0.0250518 -0.23587 0)
(-0.0242227 -0.236369 0)
(-0.0226381 -0.238342 0)
(-0.0200711 -0.241719 0)
(-0.0160896 -0.244935 0)
(0.000664052 -0.20567 0)
(-0.00239145 -0.234522 0)
(-0.00577216 -0.238015 0)
(-0.00840375 -0.238309 0)
(-0.0106628 -0.238215 0)
(-0.0125846 -0.238104 0)
(-0.0142809 -0.237991 0)
(-0.0158446 -0.237873 0)
(-0.01734 -0.237778 0)
(-0.018808 -0.237742 0)
(-0.0202709 -0.237785 0)
(-0.0217364 -0.237888 0)
(-0.0232008 -0.237984 0)
(-0.0246513 -0.23797 0)
(-0.0260697 -0.237738 0)
(-0.0274336 -0.237234 0)
(-0.0287138 -0.236526 0)
(-0.0298647 -0.235873 0)
(-0.0308053 -0.235757 0)
(-0.0313874 -0.236817 0)
(-0.031368 -0.239615 0)
(-0.0304861 -0.244144 0)
(-0.0282371 -0.248818 0)
(0.00082695 -0.204898 0)
(-0.002429 -0.231179 0)
(-0.00589229 -0.235017 0)
(-0.00841185 -0.23586 0)
(-0.0105189 -0.236194 0)
(-0.012279 -0.236364 0)
(-0.0138357 -0.236413 0)
(-0.0153031 -0.236369 0)
(-0.0167616 -0.236287 0)
(-0.0182655 -0.236223 0)
(-0.0198501 -0.236216 0)
(-0.0215356 -0.23626 0)
(-0.0233288 -0.2363 0)
(-0.0252258 -0.236241 0)
(-0.0272148 -0.235982 0)
(-0.0292787 -0.235476 0)
(-0.0313951 -0.234804 0)
(-0.0335292 -0.234251 0)
(-0.0356161 -0.234342 0)
(-0.0375268 -0.235789 0)
(-0.0390315 -0.239252 0)
(-0.0398522 -0.244827 0)
(-0.0394176 -0.250979 0)
(0.000883533 -0.204147 0)
(-0.00250214 -0.227704 0)
(-0.00598709 -0.232066 0)
(-0.00836121 -0.233547 0)
(-0.0103064 -0.234335 0)
(-0.0119062 -0.234777 0)
(-0.0133258 -0.234956 0)
(-0.0146927 -0.234939 0)
(-0.0160974 -0.234809 0)
(-0.0176039 -0.234647 0)
(-0.0192577 -0.234507 0)
(-0.0210898 -0.234397 0)
(-0.0231181 -0.234275 0)
(-0.0253486 -0.234056 0)
(-0.0277776 -0.233649 0)
(-0.0303961 -0.233013 0)
(-0.0331916 -0.232239 0)
(-0.0361448 -0.23163 0)
(-0.0392158 -0.231748 0)
(-0.0423107 -0.233375 0)
(-0.0452373 -0.237285 0)
(-0.0477298 -0.243722 0)
(-0.0491785 -0.251289 0)
(0.000856233 -0.20336 0)
(-0.00255948 -0.224172 0)
(-0.00600566 -0.229214 0)
(-0.00820421 -0.231392 0)
(-0.00998238 -0.23264 0)
(-0.0114276 -0.233338 0)
(-0.0127168 -0.233618 0)
(-0.0139833 -0.233591 0)
(-0.0153216 -0.23337 0)
(-0.0168002 -0.233057 0)
(-0.0184712 -0.232722 0)
(-0.0203739 -0.232386 0)
(-0.0225358 -0.232018 0)
(-0.024973 -0.231547 0)
(-0.0276916 -0.23089 0)
(-0.0306916 -0.230014 0)
(-0.033972 -0.229014 0)
(-0.0375319 -0.2282 0)
(-0.0413631 -0.22816 0)
(-0.0454219 -0.229735 0)
(-0.049581 -0.233815 0)
(-0.0536274 -0.240833 0)
(-0.0569636 -0.249617 0)
(0.00078154 -0.202577 0)
(-0.00255866 -0.220654 0)
(-0.00593128 -0.226507 0)
(-0.00792415 -0.229409 0)
(-0.00953134 -0.231108 0)
(-0.0108278 -0.232038 0)
(-0.0119939 -0.232393 0)
(-0.0131618 -0.232329 0)
(-0.0144236 -0.231988 0)
(-0.0158472 -0.231493 0)
(-0.0174862 -0.230925 0)
(-0.0193846 -0.230317 0)
(-0.0215771 -0.229649 0)
(-0.0240888 -0.228861 0)
(-0.0269347 -0.227881 0)
(-0.0301239 -0.22668 0)
(-0.0336663 -0.225354 0)
(-0.0375791 -0.22421 0)
(-0.0418883 -0.223838 0)
(-0.0466092 -0.225119 0)
(-0.0517032 -0.22905 0)
(-0.0570544 -0.23627 0)
(-0.0621456 -0.245915 0)
(0.000596787 -0.201841 0)
(-0.00250055 -0.217195 0)
(-0.00581035 -0.223979 0)
(-0.00755098 -0.227615 0)
(-0.00897247 -0.229739 0)
(-0.0101173 -0.230874 0)
(-0.0111616 -0.231279 0)
(-0.0122299 -0.231158 0)
(-0.0134056 -0.230683 0)
(-0.0147498 -0.229992 0)
(-0.0163128 -0.229177 0)
(-0.0181385 -0.228278 0)
(-0.0202653 -0.227285 0)
(-0.0227236 -0.226147 0)
(-0.0255356 -0.224803 0)
(-0.0287172 -0.223229 0)
(-0.0322866 -0.221514 0)
(-0.0362758 -0.219949 0)
(-0.0407396 -0.21911 0)
(-0.0457515 -0.219881 0)
(-0.0513721 -0.223333 0)
(-0.0576183 -0.230311 0)
(-0.0641257 -0.240308 0)
(-2.53897e-05 -0.200975 0)
(-0.00245885 -0.213831 0)
(-0.00577124 -0.22167 0)
(-0.00716774 -0.226036 0)
(-0.00835875 -0.228549 0)
(-0.0093281 -0.22985 0)
(-0.0102385 -0.230278 0)
(-0.0111987 -0.230084 0)
(-0.0122764 -0.229469 0)
(-0.0135196 -0.228584 0)
(-0.0149695 -0.227529 0)
(-0.0166653 -0.226347 0)
(-0.0186439 -0.225033 0)
(-0.020937 -0.223546 0)
(-0.0235698 -0.221834 0)
(-0.0265618 -0.219876 0)
(-0.0299356 -0.217753 0)
(-0.0337299 -0.215731 0)
(-0.038018 -0.214345 0)
(-0.0429168 -0.21445 0)
(-0.0485767 -0.217145 0)
(-0.0551588 -0.223434 0)
(-0.0625075 -0.233187 0)
(-0.00165621 -0.199566 0)
(-0.00260437 -0.210691 0)
(-0.00601443 -0.219679 0)
(-0.00689712 -0.224748 0)
(-0.00776212 -0.227586 0)
(-0.00850066 -0.228994 0)
(-0.00924628 -0.229403 0)
(-0.01008 -0.229116 0)
(-0.0110441 -0.228359 0)
(-0.0121665 -0.227293 0)
(-0.0134743 -0.226019 0)
(-0.0149969 -0.224581 0)
(-0.0167649 -0.222976 0)
(-0.0188068 -0.221171 0)
(-0.021146 -0.219121 0)
(-0.0238016 -0.216809 0)
(-0.026795 -0.214306 0)
(-0.0301636 -0.211845 0)
(-0.0339835 -0.209909 0)
(-0.0383915 -0.209287 0)
(-0.0435971 -0.211052 0)
(-0.0498814 -0.2163 0)
(-0.0573104 -0.225238 0)
(-0.00489042 -0.19721 0)
(-0.00322006 -0.208084 0)
(-0.00673588 -0.218237 0)
(-0.00685076 -0.223922 0)
(-0.00723728 -0.226957 0)
(-0.00766046 -0.228366 0)
(-0.00819572 -0.22869 0)
(-0.00887684 -0.228277 0)
(-0.0097089 -0.227373 0)
(-0.0106927 -0.226142 0)
(-0.0118365 -0.22468 0)
(-0.0131569 -0.223026 0)
(-0.0146743 -0.221178 0)
(-0.0164101 -0.219107 0)
(-0.0183825 -0.216777 0)
(-0.0206056 -0.214172 0)
(-0.0230942 -0.211355 0)
(-0.0258769 -0.208526 0)
(-0.0290189 -0.206107 0)
(-0.0326515 -0.204803 0)
(-0.0370011 -0.205613 0)
(-0.0424133 -0.20965 0)
(-0.0491311 -0.217369 0)
(-0.0103871 -0.193243 0)
(-0.00469679 -0.206329 0)
(-0.00799809 -0.217704 0)
(-0.00704715 -0.223848 0)
(-0.00677062 -0.226858 0)
(-0.00678983 -0.228091 0)
(-0.00707215 -0.228221 0)
(-0.00757682 -0.227633 0)
(-0.00825956 -0.226572 0)
(-0.00908905 -0.225191 0)
(-0.010053 -0.223573 0)
(-0.0111536 -0.221749 0)
(-0.0124008 -0.219714 0)
(-0.0138067 -0.217442 0)
(-0.0153818 -0.214903 0)
(-0.0171319 -0.212088 0)
(-0.0190621 -0.209049 0)
(-0.0211869 -0.205957 0)
(-0.0235522 -0.203175 0)
(-0.0262651 -0.20132 0)
(-0.0295316 -0.201292 0)