/*--------------------------------*- C++ -*----------------------------------*\
| =========                 |                                                 |
| \\      /  F ield         | OpenFOAM: The Open Source CFD Toolbox           |
|  \\    /   O peration     | Version:  v2012                                 |
|   \\  /    A nd           | Website:  www.openfoam.com                      |
|    \\/     M anipulation  |                                                 |
\*---------------------------------------------------------------------------*/
FoamFile
{
    version     2.0;
    format      ascii;
    class       surfaceScalarField;
    location    "0.75";
    object      alphaPhi0.water;
}
// * * * * * * * * * * * * * * * * * * * * * * * * * * * * * * * * * * * * * //

dimensions      [0 3 -1 0 0 0 0];
oriented        oriented;


internalField   nonuniform List<scalar> 
4432
(
-5.31705e-06
5.31705e-06
-9.47842e-06
4.16137e-06
-1.12621e-05
1.78368e-06
-1.1877e-05
6.1487e-07
-1.22271e-05
3.50126e-07
-1.26325e-05
4.05372e-07
-1.31228e-05
4.90358e-07
-1.36422e-05
5.19403e-07
-1.41244e-05
4.82128e-07
-1.45137e-05
3.89319e-07
-1.47731e-05
2.59354e-07
-1.48853e-05
1.12209e-07
-1.48429e-05
-4.23769e-08
-1.46625e-05
-1.8039e-07
-1.43804e-05
-2.82132e-07
-1.40574e-05
-3.22967e-07
-1.37776e-05
-2.79778e-07
-1.36345e-05
-1.40761e-07
-1.30068e-05
-1.4756e-08
-1.27835e-05
-2.5125e-07
-1.10154e-05
-1.79796e-06
-6.74353e-06
-4.52156e-06
-6.74495e-06
-5.56203e-06
1.08791e-05
-8.42841e-06
7.02774e-06
-9.68486e-06
3.04014e-06
-1.04584e-05
1.3884e-06
-1.11657e-05
1.05744e-06
-1.19151e-05
1.15472e-06
-1.26882e-05
1.26345e-06
-1.34245e-05
1.25576e-06
-1.40699e-05
1.12754e-06
-1.45863e-05
9.05639e-07
-1.49505e-05
6.23551e-07
-1.51557e-05
3.17415e-07
-1.52087e-05
1.06514e-08
-1.51075e-05
-2.81588e-07
-1.48578e-05
-5.3186e-07
-1.44847e-05
-6.96009e-07
-1.40081e-05
-7.56416e-07
-1.33672e-05
-7.81586e-07
-1.22176e-05
-1.0037e-06
-1.02675e-05
-1.891e-06
-7.79493e-06
-4.3029e-06
-4.58823e-06
-7.8654e-06
-1.13344e-05
-4.57255e-06
1.54516e-05
-6.80196e-06
9.25715e-06
-8.18212e-06
4.4203e-06
-9.26129e-06
2.46756e-06
-1.0269e-05
2.06514e-06
-1.12723e-05
2.15801e-06
-1.22441e-05
2.23523e-06
-1.31335e-05
2.14524e-06
-1.3902e-05
1.89595e-06
-1.45228e-05
1.52651e-06
-1.49785e-05
1.07922e-06
-1.52635e-05
6.02404e-07
-1.53789e-05
1.26078e-07
-1.53207e-05
-3.3979e-07
-1.50805e-05
-7.72091e-07
-1.46565e-05
-1.12003e-06
-1.40295e-05
-1.38336e-06
-1.30988e-05
-1.71235e-06
-1.16662e-05
-2.43637e-06
-9.39251e-06
-4.10766e-06
-6.39447e-06
-7.40424e-06
-2.90982e-06
-1.19025e-05
-1.42454e-05
-3.52014e-06
1.89718e-05
-5.42699e-06
1.1164e-05
-6.91609e-06
5.9094e-06
-8.24827e-06
3.79973e-06
-9.53535e-06
3.35222e-06
-1.07836e-05
3.40624e-06
-1.19439e-05
3.39557e-06
-1.29711e-05
3.17244e-06
-1.3843e-05
2.76777e-06
-1.45453e-05
2.22886e-06
-1.50667e-05
1.6006e-06
-1.54052e-05
9.40862e-07
-1.55626e-05
2.83541e-07
-1.55308e-05
-3.71619e-07
-1.52911e-05
-1.01181e-06
-1.48281e-05
-1.58305e-06
-1.41103e-05
-2.10111e-06
-1.30352e-05
-2.78742e-06
-1.14143e-05
-4.05739e-06
-9.03996e-06
-6.48262e-06
-5.78799e-06
-1.06562e-05
-1.91427e-06
-1.57762e-05
-1.61611e-05
-2.43413e-06
2.14059e-05
-4.15858e-06
1.28884e-05
-5.78221e-06
7.53303e-06
-7.37513e-06
5.39264e-06
-8.94333e-06
4.92042e-06
-1.04319e-05
4.89476e-06
-1.17719e-05
4.7356e-06
-1.29253e-05
4.32588e-06
-1.38882e-05
3.73064e-06
-1.46581e-05
2.99872e-06
-1.52292e-05
2.17175e-06
-1.5605e-05
1.31666e-06
-1.57909e-05
4.69462e-07
-1.57755e-05
-3.87086e-07
-1.55321e-05
-1.2552e-06
-1.50428e-05
-2.07238e-06
-1.42838e-05
-2.86011e-06
-1.31714e-05
-3.89976e-06
-1.15484e-05
-5.68044e-06
-9.20942e-06
-8.82157e-06
-5.89725e-06
-1.39684e-05
-1.69359e-06
-1.99792e-05
-1.78523e-05
-1.31533e-06
2.27212e-05
-2.94746e-06
1.45206e-05
-4.77006e-06
9.35563e-06
-6.6561e-06
7.27868e-06
-8.51051e-06
6.77483e-06
-1.02297e-05
6.61392e-06
-1.17346e-05
6.24049e-06
-1.29992e-05
5.5905e-06
-1.40397e-05
4.77114e-06
-1.48631e-05
3.82212e-06
-1.54686e-05
2.77727e-06
-1.58668e-05
1.71488e-06
-1.60692e-05
6.71881e-07
-1.60619e-05
-3.94432e-07
-1.58117e-05
-1.50544e-06
-1.53064e-05
-2.57763e-06
-1.45456e-05
-3.62091e-06
-1.34798e-05
-4.96554e-06
-1.19968e-05
-7.16341e-06
-9.9212e-06
-1.08972e-05
-6.9232e-06
-1.69664e-05
-2.63721e-06
-2.4263e-05
-2.04898e-05
-2.75567e-07
2.29968e-05
-1.81166e-06
1.60566e-05
-3.90526e-06
1.14492e-05
-6.12419e-06
9.49761e-06
-8.26355e-06
8.91419e-06
-1.01933e-05
8.54372e-06
-1.184e-05
7.88713e-06
-1.31957e-05
6.9462e-06
-1.42975e-05
5.87297e-06
-1.51576e-05
4.68221e-06
-1.57795e-05
3.3992e-06
-1.61841e-05
2.1194e-06
-1.63911e-05
8.78895e-07
-1.63839e-05
-4.01611e-07
-1.61226e-05
-1.76671e-06
-1.56075e-05
-3.09277e-06
-1.48724e-05
-4.35594e-06
-1.3912e-05
-5.92594e-06
-1.26734e-05
-8.4021e-06
-1.10772e-05
-1.24934e-05
-8.98014e-06
-1.90634e-05
-5.62898e-06
-2.76123e-05
-2.61191e-05
6.9368e-07
2.23031e-05
-7.86254e-07
1.75366e-05
-3.23175e-06
1.38947e-05
-5.81902e-06
1.20849e-05
-8.22344e-06
1.13186e-05
-1.0327e-05
1.06473e-05
-1.20832e-05
9.64333e-06
-1.35044e-05
8.36738e-06
-1.4649e-05
7.01755e-06
-1.55251e-05
5.55835e-06
-1.61418e-05
4.01584e-06
-1.65349e-05
2.51254e-06
-1.67347e-05
1.07868e-06
-1.67201e-05
-4.16163e-07
-1.6442e-05
-2.04489e-06
-1.59175e-05
-3.61725e-06
-1.5223e-05
-5.05047e-06
-1.43987e-05
-6.75016e-06
-1.34572e-05
-9.34358e-06
-1.24888e-05
-1.34618e-05
-1.19068e-05
-1.96455e-05
-1.10581e-05
-2.84604e-05
-3.71799e-05
1.68168e-06
-4.31161e-06
-4.85229e-05
5.06513e-05
-9.76718e-05
4.89554e-05
-0.000119807
2.20303e-05
-0.000119659
-2.09093e-07
-0.000112967
-6.72398e-06
-0.000110414
-2.63865e-06
-0.000112701
1.83452e-06
-0.000116422
3.19912e-06
-0.000117081
6.61248e-07
-0.000112918
-4.16038e-06
-0.000101427
-1.00873e-05
-8.42792e-05
-1.68724e-05
-6.23396e-05
-2.22608e-05
-3.97712e-05
-2.21571e-05
-1.98092e-05
-1.82397e-05
-3.2978e-06
-1.60736e-05
7.44459e-06
-1.04388e-05
7.27043e-06
-3.99764e-05
3.66807e-05
-9.26994e-05
0.000103157
-0.000120715
7.67602e-05
-0.000121659
2.27752e-05
-0.000115561
-6.37779e-06
-0.000108755
-1.35317e-05
-0.000106907
-4.48545e-06
-0.000109552
4.48119e-06
-0.000112013
5.66287e-06
-0.000111945
5.91809e-07
-0.00010828
-7.82285e-06
-9.95124e-05
-1.8853e-05
-8.45797e-05
-3.18015e-05
-6.49085e-05
-4.19239e-05
-4.46922e-05
-4.19518e-05
-2.62686e-05
-3.59597e-05
-1.15882e-05
-3.09303e-05
-7.46536e-07
-2.0676e-05
6.7869e-06
-5.64583e-05
9.0631e-05
-9.16967e-05
0.000138173
-8.60821e-05
5.94356e-05
-8.66094e-05
8.5077e-06
-9.33329e-05
-5.83941e-06
-9.57447e-05
-1.42258e-05
-9.61335e-05
-4.09464e-06
-0.000100635
8.98468e-06
-0.000104489
9.51907e-06
-0.000105118
1.22322e-06
-0.000101976
-1.09109e-05
-9.42156e-05
-2.66071e-05
-8.11127e-05
-4.48987e-05
-6.37041e-05
-5.93232e-05
-4.67472e-05
-5.88988e-05
-3.10441e-05
-5.196e-05
-1.65437e-05
-4.56009e-05
-6.28358e-06
-3.09029e-05
2.17291e-07
-4.65856e-05
0.000134596
-4.12691e-05
0.000129121
-2.0522e-05
2.48759e-05
-1.59303e-05
1.79878e-06
-1.82055e-05
-1.04742e-05
-4.95102e-05
-1.96492e-05
-7.83316e-05
7.46132e-06
-9.01198e-05
2.07752e-05
-9.69898e-05
1.63914e-05
-9.81961e-05
2.5203e-06
-9.50006e-05
-1.41003e-05
-8.78445e-05
-3.37345e-05
-7.63117e-05
-5.6427e-05
-6.05782e-05
-7.50455e-05
-4.59865e-05
-7.34914e-05
-3.37203e-05
-6.4222e-05
-2.04315e-05
-5.88691e-05
-8.64515e-06
-4.26229e-05
-8.4418e-06
-3.71867e-05
0.000168747
-1.46761e-05
0.00010391
-8.51795e-06
1.62109e-05
-7.37554e-06
-7.51035e-07
-1.65123e-06
-1.55169e-05
-6.51853e-06
-9.34663e-06
-3.13181e-05
1.4969e-05
-5.99509e-05
2.27171e-05
-7.51635e-05
1.57755e-05
-7.92283e-05
3.36539e-06
-8.22766e-05
-9.45308e-06
-7.92138e-05
-3.7375e-05
-6.99014e-05
-6.58137e-05
-5.57502e-05
-8.91968e-05
-4.36752e-05
-8.55464e-05
-3.40123e-05
-7.3864e-05
-2.33007e-05
-6.95397e-05
-9.99717e-06
-5.53204e-05
-1.84547e-05
-2.29692e-05
0.000186389
-3.41311e-06
7.98109e-05
1.23639e-06
9.6828e-06
4.20197e-06
-5.63121e-06
2.31018e-05
-2.57629e-05
2.17412e-05
-7.64563e-06
4.08443e-06
4.03344e-05
-1.01929e-05
3.15591e-05
-1.10565e-05
1.05824e-05
-1.23397e-05
2.96379e-06
-2.31443e-05
-2.38039e-06
-4.84248e-05
-1.34613e-05
-6.04521e-05
-5.61492e-05
-4.91783e-05
-0.000100527
-4.04016e-05
-9.42726e-05
-3.36478e-05
-8.0591e-05
-2.42991e-05
-7.88176e-05
-1.0737e-05
-6.8495e-05
-2.92036e-05
-5.45948e-06
0.000186733
7.26242e-06
4.05953e-05
8.24975e-06
6.15489e-06
2.36112e-05
-6.93861e-06
4.13079e-05
-3.31943e-05
4.04796e-05
-7.03578e-06
3.42741e-05
4.71654e-05
1.0161e-05
7.1973e-05
-2.48368e-06
2.23961e-05
-6.08691e-06
5.39201e-06
-8.81497e-06
-1.18697e-06
-1.50119e-05
-8.72262e-06
-4.55565e-05
-3.65364e-05
-4.08896e-05
-0.000105649
-3.65179e-05
-9.84551e-05
-3.31971e-05
-8.38375e-05
-2.50821e-05
-8.68299e-05
-1.15185e-05
-8.19351e-05
-4.39047e-05
7.7694e-06
0.000173564
1.13928e-05
2.65315e-05
1.32167e-05
1.49784e-06
4.9709e-05
-2.45514e-05
5.30012e-05
-3.80031e-05
5.00039e-05
-5.22873e-06
4.55488e-05
5.17913e-05
3.29469e-05
8.50028e-05
7.1742e-06
7.90626e-05
-2.48909e-06
1.35207e-05
-6.57646e-06
1.36576e-06
-9.14554e-06
-7.68817e-06
-3.05859e-05
-2.80089e-05
-3.2003e-05
-0.000113102
-3.18382e-05
-8.93e-05
-3.29304e-05
-7.955e-05
-2.54426e-05
-9.41703e-05
-1.23274e-05
-9.50003e-05
-5.6621e-05
2.57458e-06
5.44802e-06
4.71916e-07
6.21997e-06
-4.51085e-06
6.84053e-06
-1.02273e-05
7.43239e-06
-1.59226e-05
8.20789e-06
-2.15116e-05
9.02752e-06
-2.66981e-05
9.57688e-06
-2.9999e-05
1.05359e-05
-3.24996e-05
9.51817e-06
-3.43109e-05
7.36967e-06
-3.55194e-05
5.22435e-06
-3.62566e-05
3.24975e-06
-3.66238e-05
1.44586e-06
-3.65564e-05
-4.83563e-07
-3.58841e-05
-2.71721e-06
-3.47117e-05
-4.78965e-06
-3.33736e-05
-6.38853e-06
-3.20717e-05
-8.05206e-06
-3.10147e-05
-1.04005e-05
-3.0875e-05
-1.36014e-05
-3.2959e-05
-1.75612e-05
-3.87486e-05
-2.26693e-05
-2.5142e-05
-5.0784e-05
-1.34832e-07
5.86609e-09
-3.21668e-07
-7.36515e-09
-9.72726e-07
-1.42716e-08
-2.13256e-06
-2.29768e-08
-3.847e-06
-3.77869e-08
-6.26669e-06
-4.33432e-08
-9.74858e-06
-3.71917e-08
-1.49772e-05
4.79463e-07
-2.08746e-05
1.71018e-06
-2.66422e-05
2.54014e-06
-3.17336e-05
2.75866e-06
-3.52893e-05
2.32622e-06
-3.67051e-05
1.28264e-06
-3.66954e-05
-5.35354e-07
-3.58604e-05
-3.54109e-06
-3.45128e-05
-6.13666e-06
-3.33407e-05
-7.56e-06
-3.24908e-05
-8.9011e-06
-3.21334e-05
-1.0757e-05
-3.28359e-05
-1.28978e-05
-3.54807e-05
-1.49153e-05
-4.1585e-05
-1.65626e-05
-1.53917e-05
-5.13263e-05
-1.64492e-09
3.45267e-10
-1.8712e-08
6.29534e-10
-4.53015e-08
8.45314e-10
-8.13375e-08
6.05527e-10
-1.31592e-07
2.97914e-10
-1.85996e-07
-1.41256e-11
-2.33426e-07
-5.54661e-10
-3.82341e-07
-5.38263e-09
-1.23979e-06
-1.3395e-08
-2.68399e-06
-1.46424e-08
-4.59217e-06
-2.78211e-09
-6.99691e-06
1.16979e-08
-1.03853e-05
2.8051e-08
-1.54631e-05
-1.68305e-09
-2.11851e-05
-3.15673e-08
-2.51634e-05
-4.8893e-07
-2.68244e-05
-2.21459e-06
-2.77756e-05
-4.10533e-06
-2.91575e-05
-6.24902e-06
-3.13433e-05
-8.21296e-06
-3.51912e-05
-9.81309e-06
-4.03769e-05
-1.11444e-05
-1.00593e-05
-4.56842e-05
3.20875e-11
1.31105e-11
1.7211e-10
3.02565e-11
2.68462e-10
6.62069e-11
4.76025e-11
6.62119e-11
-4.12147e-10
4.70454e-11
-1.09695e-09
2.8696e-11
-2.37468e-09
2.78138e-11
-8.65745e-09
4.70493e-11
-2.2707e-08
2.66251e-12
-3.75549e-08
-4.05523e-11
-4.01692e-08
-1.34638e-11
-2.82635e-08
3.93585e-11
-9.64528e-11
6.99287e-12
-1.77915e-09
-2.37109e-17
-3.33464e-08
-2.22187e-15
-5.22276e-07
-7.60035e-14
-1.70599e-06
-1.39446e-12
-3.86234e-06
-2.73505e-11
-5.98063e-06
-5.33966e-10
-8.68197e-06
-1.01525e-08
-1.4437e-05
-1.5768e-07
-2.49105e-05
-9.8781e-07
-1.17997e-06
-3.51014e-05
1.07713e-12
4.72035e-13
9.01686e-12
1.25787e-12
3.45508e-11
3.34886e-12
5.25781e-11
4.11435e-12
5.47295e-11
3.6176e-12
4.61448e-11
2.70384e-12
3.78637e-11
2.81727e-12
3.69069e-11
4.6547e-12
3.66018e-12
2.45321e-12
-4.6856e-11
-2.20532e-12
-5.32767e-11
-2.77874e-12
-7.03062e-12
-9.69749e-13
-8.25836e-17
-4.45559e-14
-1.50016e-16
-1.8607e-17
-1.97743e-15
-1.20555e-16
-6.8314e-14
-1.01612e-14
-1.41401e-12
-6.1205e-14
-2.8711e-11
-3.21493e-13
-5.59544e-10
-7.6945e-12
-1.06975e-08
-9.55986e-11
-1.69743e-07
-1.17848e-12
-1.25807e-06
-9.96567e-09
-1.26997e-07
-4.88077e-06
3.26776e-14
1.72513e-14
3.60612e-13
5.09507e-14
1.76767e-12
1.56616e-13
3.27825e-12
2.21491e-13
4.10265e-12
4.60222e-13
4.34374e-12
7.23996e-13
4.72778e-12
8.09776e-13
6.27522e-12
1.10458e-12
6.48728e-12
1.09791e-12
3.45207e-12
3.49381e-13
8.28697e-13
-2.41235e-14
3.1137e-14
-2.73929e-14
-1.5102e-15
-3.26957e-15
-4.21595e-16
8.98621e-15
-1.97371e-14
1.82654e-14
-9.92387e-14
2.19434e-14
3.68934e-14
6.6707e-15
-1.43607e-12
-1.3466e-14
-1.16065e-11
-2.43908e-13
-1.37244e-10
3.48546e-12
-5.49581e-10
8.7334e-11
-1.972e-08
6.72582e-10
-9.66092e-10
-1.82243e-07
2.05761e-15
7.42686e-16
1.78976e-14
2.16925e-15
8.19777e-14
1.761e-14
1.83655e-13
2.80751e-14
3.16926e-13
3.07441e-14
3.74289e-13
6.07297e-13
4.31376e-13
7.57809e-13
6.02637e-13
9.41155e-13
6.67561e-13
1.03585e-12
3.53523e-13
6.58777e-13
8.61681e-14
2.43205e-13
8.71767e-15
5.00575e-14
1.09506e-15
4.35304e-15
2.06893e-14
-9.33468e-14
1.30289e-13
-1.79156e-13
1.79414e-13
-1.71962e-13
-8.49222e-14
-1.11833e-13
-1.07239e-12
3.15483e-14
-3.02914e-12
6.49043e-13
-2.14017e-11
8.86467e-12
-2.19759e-10
1.29229e-10
-2.28918e-09
1.31925e-09
8.54184e-09
-2.20741e-08
7.12002e-17
4.58818e-17
1.11784e-15
2.75237e-17
4.97839e-15
1.43736e-14
9.6271e-15
2.34508e-14
1.31373e-14
2.72339e-14
2.84508e-15
5.05606e-15
-1.62158e-14
-2.57478e-14
-2.80506e-14
-4.07327e-14
-2.61575e-14
-3.55012e-14
-5.64497e-14
-7.40026e-14
-9.91741e-14
-1.32402e-13
-1.18863e-13
-1.76045e-13
-1.08335e-13
-2.08035e-13
-7.5143e-14
-2.75295e-13
2.00401e-14
-3.31243e-13
1.35112e-13
-3.33406e-13
1.80695e-13
-3.03186e-13
-7.37344e-13
-2.1488e-13
-3.49576e-13
2.63148e-13
1.38083e-12
3.46748e-12
3.24063e-11
4.38667e-11
3.30535e-10
4.89103e-10
3.5306e-09
5.14874e-10
3.75432e-18
4.23746e-17
2.57137e-17
5.56427e-18
-2.28917e-16
-7.70578e-16
-2.05263e-15
-5.1634e-15
-7.27984e-15
-1.48746e-14
-1.78244e-14
-3.12659e-14
-3.4327e-14
-5.36712e-14
-5.56766e-14
-7.97181e-14
-7.77643e-14
-1.04578e-13
-9.87588e-14
-1.28794e-13
-1.12596e-13
-1.48978e-13
-1.15768e-13
-1.65939e-13
-1.07633e-13
-1.84844e-13
-8.72508e-14
-2.1442e-13
-4.29068e-14
-2.39334e-13
1.76334e-14
-2.41751e-13
5.69954e-14
-2.21104e-13
-8.99901e-14
-1.73039e-13
6.705e-14
1.06021e-13
1.6447e-12
5.79566e-13
2.52363e-11
7.43318e-12
2.66457e-10
9.58131e-11
8.21133e-10
1.4179e-09
-7.96109e-20
-8.7824e-19
7.33529e-19
3.30439e-18
-1.09415e-16
-3.75781e-16
-6.62362e-16
-1.70605e-15
-2.12335e-15
-4.44432e-15
-5.04246e-15
-9.04829e-15
-9.97142e-15
-1.59375e-14
-1.72886e-14
-2.53568e-14
-2.65546e-14
-3.67481e-14
-3.62805e-14
-4.89001e-14
-4.37461e-14
-5.97871e-14
-4.74167e-14
-6.93024e-14
-4.7009e-14
-7.90387e-14
-4.19759e-14
-9.04638e-14
-2.98372e-14
-9.98843e-14
-1.11316e-14
-1.01226e-13
5.45519e-15
-9.19893e-14
-2.78734e-15
-7.15689e-14
-1.02778e-13
5.69219e-15
3.41879e-13
3.03152e-14
4.97069e-12
6.69946e-13
5.96349e-11
1.04379e-11
1.06489e-10
4.1854e-10
-2.64386e-20
-3.32825e-19
-3.44428e-20
-1.97242e-19
-1.58541e-17
-5.82886e-17
-9.84166e-17
-2.68802e-16
-3.25385e-16
-7.17443e-16
-8.06139e-16
-1.51669e-15
-1.68666e-15
-2.81936e-15
-3.13121e-15
-4.8029e-15
-5.20203e-15
-7.54182e-15
-7.6898e-15
-1.08716e-14
-9.96943e-15
-1.42509e-14
-1.15749e-14
-1.74782e-14
-1.22202e-14
-2.05837e-14
-1.17444e-14
-2.36854e-14
-9.7956e-15
-2.61522e-14
-6.29753e-15
-2.63935e-14
-2.24787e-15
-2.26236e-14
-3.68599e-16
-1.30621e-14
-9.62741e-16
1.51384e-14
3.53922e-14
3.72493e-14
4.02942e-13
1.92348e-14
5.29768e-12
1.04624e-12
1.42606e-11
3.70871e-11
-2.2707e-21
-3.54942e-20
-1.1091e-20
-7.32415e-20
-1.42238e-18
-5.82549e-18
-9.51158e-18
-2.83455e-17
-3.33512e-17
-7.91424e-17
-8.71116e-17
-1.74747e-16
-1.93346e-16
-3.42516e-16
-3.83524e-16
-6.21293e-16
-6.83811e-16
-1.04478e-15
-1.08842e-15
-1.61697e-15
-1.4977e-15
-2.23483e-15
-1.79586e-15
-2.79027e-15
-1.86052e-15
-3.13521e-15
-1.77605e-15
-3.40206e-15
-1.63097e-15
-3.75446e-15
-1.25946e-15
-3.73282e-15
-6.14409e-16
-2.56434e-15
7.54427e-16
1.59477e-15
1.94573e-15
1.39443e-14
3.01681e-15
2.28052e-14
1.75668e-14
8.99088e-15
2.43716e-13
3.33681e-13
4.86063e-12
2.70049e-12
-1.82529e-22
-3.80321e-21
-1.93171e-21
-1.53961e-20
-9.34148e-20
-4.39589e-19
-6.93071e-19
-2.30211e-18
-2.60267e-18
-6.74465e-18
-7.02325e-18
-1.51669e-17
-1.61613e-17
-3.05086e-17
-3.35724e-17
-5.75229e-17
-6.38257e-17
-1.02493e-16
-1.064e-16
-1.64956e-16
-1.54491e-16
-2.38083e-16
-1.82997e-16
-2.8878e-16
-1.45225e-16
-2.41954e-16
-6.49633e-17
-1.17903e-16
-2.44942e-17
-4.99733e-17
4.22215e-17
1.10772e-16
1.85631e-16
3.07612e-16
6.88303e-16
1.39333e-15
1.63053e-15
1.83164e-15
2.62907e-15
2.67095e-15
1.53281e-14
3.54535e-15
2.50938e-13
5.10658e-14
8.24018e-13
3.62592e-12
-2.4797e-23
-7.26707e-22
-4.00561e-22
-3.9738e-21
-7.51678e-21
-4.14402e-20
-5.65147e-20
-2.11749e-19
-2.08819e-19
-5.94751e-19
-5.13808e-19
-1.1968e-18
-1.09253e-18
-2.19331e-18
-2.19232e-18
-3.94978e-18
-4.41465e-18
-7.37931e-18
-7.41847e-18
-1.1844e-17
-1.11232e-17
-1.74186e-17
-1.20278e-17
-1.89402e-17
-1.08283e-18
-1.75518e-18
3.29222e-17
3.95772e-17
4.81844e-17
7.4937e-17
6.17634e-17
1.10041e-16
7.9022e-17
8.01812e-17
1.20664e-16
4.90381e-17
2.34015e-16
7.22382e-17
4.76376e-16
1.67748e-16
1.78426e-15
4.75014e-16
4.17056e-14
4.63019e-15
9.57541e-14
6.97528e-13
-4.24845e-24
-1.79506e-22
-7.87443e-23
-9.80807e-22
-9.88354e-22
-6.40524e-21
-6.5328e-21
-2.76024e-20
-2.12984e-20
-6.64345e-20
-4.13556e-20
-1.03215e-19
-6.69717e-20
-1.41612e-19
-1.12252e-19
-2.09999e-19
-2.33075e-19
-3.99334e-19
-3.6896e-19
-5.95851e-19
-5.31467e-19
-8.29301e-19
-4.25631e-19
-6.55751e-19
1.45557e-18
1.10769e-18
3.77291e-18
6.8306e-19
5.28768e-18
9.98727e-19
6.47014e-18
1.36806e-18
6.21681e-18
1.32288e-18
7.83427e-18
1.53508e-18
2.17892e-17
4.07089e-18
5.73947e-17
1.20859e-17
1.94141e-16
3.91816e-17
3.55558e-15
3.58182e-16
7.29073e-15
8.46356e-14
-6.7178e-25
-3.93231e-23
-1.26587e-23
-1.93049e-22
-1.38641e-22
-1.03719e-21
-8.01663e-22
-3.76118e-21
-2.28337e-21
-7.6845e-21
-3.47845e-21
-9.158e-21
-3.9088e-21
-8.55988e-21
-4.62685e-21
-8.82402e-21
-9.34351e-21
-1.60851e-20
-1.21705e-20
-1.94677e-20
-1.31184e-20
-1.99672e-20
1.31307e-20
2.47813e-21
5.68003e-20
5.65595e-21
1.07199e-19
9.25977e-21
1.72961e-19
1.69871e-20
2.49747e-19
2.86575e-20
3.45729e-19
4.57731e-20
5.84036e-19
8.25114e-20
1.84617e-18
2.48684e-19
5.66763e-18
8.25891e-19
2.04089e-17
2.90096e-18
2.57021e-16
3.07276e-17
5.30762e-16
6.3303e-15
-9.68277e-26
-6.77999e-24
-1.61776e-24
-2.82387e-23
-1.57991e-23
-1.30781e-22
-8.05276e-23
-4.06601e-22
-2.0188e-22
-7.14164e-22
-2.50369e-22
-6.79013e-22
-2.04413e-22
-4.53081e-22
-1.57126e-22
-2.98582e-22
-2.67541e-22
-4.52314e-22
-1.80757e-22
-2.7997e-22
3.28482e-22
1.60456e-22
1.10485e-21
7.18206e-22
1.69924e-21
1.32935e-22
4.23128e-21
3.14193e-22
7.39714e-21
6.09759e-22
1.23098e-20
1.13805e-21
2.00482e-20
2.05349e-21
3.90704e-20
4.08653e-21
1.33862e-19
1.3345e-20
4.6073e-19
4.8706e-20
1.82291e-18
1.90479e-19
2.22335e-17
2.42266e-18
4.0576e-17
4.21913e-16
-1.30267e-26
-8.80672e-25
-1.63638e-25
-2.96441e-24
-1.3547e-24
-1.16777e-23
-5.98786e-24
-3.11599e-23
-1.32435e-23
-4.75895e-23
-1.3761e-23
-3.73306e-23
-8.33343e-24
-1.82011e-23
-4.2551e-24
-7.85549e-24
-4.70509e-24
-7.62497e-24
6.97077e-24
3.69803e-24
2.05694e-23
3.12946e-24
3.88986e-23
2.64306e-24
6.20909e-23
4.1639e-24
1.54982e-22
9.3801e-24
2.97095e-22
1.92533e-23
5.57547e-22
3.94182e-23
1.0327e-21
7.92254e-23
2.2596e-21
1.77004e-22
8.47139e-21
6.61313e-22
3.28807e-20
2.91277e-21
1.46711e-19
1.54644e-20
1.8414e-18
1.74537e-19
2.79282e-18
3.27305e-17
-1.59281e-27
-8.92829e-26
-1.44403e-26
-2.47037e-25
-9.8609e-26
-8.3071e-25
-3.81792e-25
-1.95454e-24
-7.8821e-25
-2.77324e-24
-7.3788e-25
-1.941e-24
-2.89736e-25
-6.0652e-25
-8.63048e-26
-1.50878e-25
-2.25803e-26
-3.42439e-26
2.23458e-25
1.54678e-26
5.16855e-25
2.60125e-26
1.06203e-24
5.28614e-26
2.02349e-24
1.00882e-25
5.01114e-24
2.32008e-25
1.04665e-23
5.08963e-25
2.20302e-23
1.1566e-24
4.6395e-23
2.68474e-24
1.17746e-22
8.04327e-24
5.28728e-22
4.74666e-23
2.72372e-21
3.56889e-22
1.85379e-20
4.29657e-21
2.2789e-19
6.37302e-20
9.23057e-19
3.61581e-18
-1.97884e-28
-8.78302e-27
-1.61485e-27
-2.45441e-26
-1.04182e-26
-8.15767e-26
-3.96053e-26
-1.91613e-25
-8.45634e-26
-2.8182e-25
-7.1516e-26
-1.77269e-25
-1.3069e-26
-2.55521e-26
-1.13764e-27
-1.83846e-27
1.71485e-27
1.15879e-27
4.44204e-27
2.12109e-28
1.27288e-26
4.93697e-28
2.74521e-26
1.02759e-27
5.35767e-26
1.90118e-27
1.37229e-25
4.60354e-27
3.14871e-25
1.1156e-26
7.59918e-25
3.01967e-26
1.98622e-24
1.1285e-25
8.03724e-24
8.93645e-25
6.42523e-23
1.09046e-23
5.85214e-22
1.21404e-22
8.70095e-21
2.55611e-21
1.61988e-19
6.26599e-20
1.0511e-18
2.4444e-18
-2.61072e-29
-9.28384e-28
-2.07271e-28
-2.73118e-27
-1.3272e-27
-9.37843e-27
-5.11434e-27
-2.274e-26
-1.10865e-26
-3.41214e-26
-7.28292e-27
-1.66186e-26
-2.274e-28
-4.06166e-28
6.8302e-29
9.98553e-29
6.76556e-29
1.15683e-29
1.14591e-28
7.62168e-30
2.67116e-28
9.40776e-30
5.47674e-28
1.46541e-29
1.11448e-27
2.67809e-29
3.10814e-27
7.29426e-29
8.23599e-27
2.23784e-28
2.64643e-26
1.20988e-27
1.46818e-25
1.53816e-26
1.60787e-24
2.66713e-25
2.08194e-23
3.98585e-24
2.37765e-22
4.67241e-23
5.89518e-21
1.46951e-21
1.90701e-19
5.88838e-20
1.12615e-18
3.22395e-18
-2.77365e-30
-8.15709e-29
-1.93346e-29
-2.20962e-28
-1.17201e-28
-7.39164e-28
-4.38619e-28
-1.76554e-27
-8.6727e-28
-2.42505e-27
2.86413e-29
5.91477e-29
1.69766e-28
2.72099e-28
3.2807e-30
3.04123e-30
3.12162e-30
2.72142e-31
3.57899e-30
2.20445e-31
5.01541e-30
1.85427e-31
8.45447e-30
1.9336e-31
1.80975e-29
3.12263e-31
6.04325e-29
1.14224e-30
2.3872e-28
9.44707e-30
2.04548e-27
1.8613e-28
3.19762e-26
4.20831e-27
5.446e-25
8.37087e-26
7.80165e-24
1.24298e-24
9.21184e-23
1.4229e-23
3.42474e-21
6.46254e-22
1.70115e-19
4.14493e-20
9.25411e-19
3.19729e-18
-1.80951e-31
-4.55853e-30
-9.012e-31
-9.04927e-30
-4.43695e-30
-2.50101e-29
-1.4266e-29
-5.17328e-29
-8.894e-30
-2.24007e-29
1.0608e-28
1.96005e-28
1.38533e-30
1.53053e-30
5.86019e-32
7.68708e-33
6.94718e-32
1.83822e-33
8.72194e-32
2.13982e-33
1.11951e-31
2.40859e-33
1.32581e-31
2.30081e-33
2.65014e-31
4.21242e-33
1.55285e-30
5.63413e-32
2.03956e-29
1.54908e-30
4.27177e-28
4.2133e-29
9.38651e-27
1.05828e-27
1.79241e-25
2.13206e-26
2.60552e-24
3.09642e-25
3.12073e-23
3.5904e-24
1.64985e-21
2.33655e-22
1.18091e-19
2.09464e-20
5.91991e-19
2.65931e-18
-8.0676e-33
-1.796e-31
-2.74681e-32
-2.46659e-31
-1.07232e-31
-5.44663e-31
-2.90535e-31
-9.50786e-31
3.9919e-31
1.16194e-31
2.31015e-30
9.78507e-32
5.53832e-33
1.99502e-33
4.61012e-34
4.15431e-35
5.15601e-34
6.87635e-36
6.14585e-34
6.85849e-36
8.55246e-34
8.20005e-36
1.31903e-33
1.54961e-35
6.47151e-33
2.38233e-34
1.44791e-31
8.57596e-33
3.92653e-30
2.78849e-31
1.05787e-28
8.21778e-30
2.6164e-27
2.13602e-28
5.31189e-26
4.45142e-27
7.6841e-25
6.42691e-26
9.41648e-24
7.83186e-25
7.40729e-22
8.37662e-23
7.48198e-20
1.05638e-20
3.3601e-19
1.94883e-18
-2.70222e-34
-5.461e-33
-6.25416e-34
-5.11544e-33
-1.9268e-33
-8.9175e-33
-4.362e-33
-1.29497e-32
3.41861e-33
7.80874e-35
9.17523e-33
1.93503e-34
6.46365e-35
1.08327e-35
3.33081e-36
2.57432e-37
3.65452e-36
3.47309e-38
4.63269e-36
3.79938e-38
7.62852e-36
5.88526e-38
2.87495e-35
7.60112e-37
8.09587e-34
3.59196e-35
2.60808e-32
1.26135e-33
8.29399e-31
4.12706e-32
2.45547e-29
1.24197e-30
6.61828e-28
3.41764e-29
1.39026e-26
7.24423e-28
2.01158e-25
1.06344e-26
2.63309e-24
1.52834e-25
3.6649e-22
3.35147e-23
4.98488e-20
5.46436e-21
1.75353e-19
1.33411e-18
-7.22565e-36
-1.35685e-34
-1.14097e-35
-8.64795e-35
-2.76762e-35
-1.18089e-34
-5.19182e-35
-1.40743e-34
2.51182e-35
6.87134e-37
6.17494e-35
9.97052e-37
5.63934e-37
5.3306e-38
2.40431e-38
1.22099e-39
2.58512e-38
1.69867e-40
4.16542e-38
2.36787e-40
1.06841e-37
1.6502e-39
2.97011e-36
8.49359e-38
1.21215e-34
3.45097e-36
4.5825e-33
1.24618e-34
1.60512e-31
4.16112e-33
5.20069e-30
1.31103e-31
1.47691e-28
3.64291e-30
3.11348e-27
7.65011e-29
4.60641e-26
1.19961e-27
7.61883e-25
2.90828e-26
2.17487e-22
1.34693e-23
3.3973e-20
2.48403e-21
8.13001e-20
8.76556e-19
-1.60567e-37
-2.85707e-36
-1.73791e-37
-1.23955e-36
-3.30705e-37
-1.31531e-36
-5.08698e-37
-1.26738e-36
1.73242e-37
5.20108e-39
3.56056e-37
4.32469e-39
3.11935e-39
2.03889e-40
1.23891e-40
4.16936e-42
1.2963e-40
4.2174e-43
3.2948e-40
2.64018e-42
7.88615e-39
1.31452e-40
4.17957e-37
5.99438e-39
1.79872e-35
1.84121e-37
7.41457e-34
5.14567e-36
2.8335e-32
1.24278e-34
9.76447e-31
2.53312e-33
2.80354e-29
4.71821e-32
5.84604e-28
1.06527e-30
9.28675e-27
3.10729e-29
2.92094e-25
3.34539e-27
1.4396e-22
3.24486e-24
2.18359e-20
7.38979e-22
2.95769e-20
5.55042e-19
-3.04918e-39
-5.22461e-38
-2.26958e-39
-1.54341e-38
-3.36714e-39
-1.26048e-38
-4.19012e-39
-9.64853e-39
9.77094e-40
3.39288e-41
1.73022e-39
1.53474e-41
1.37204e-41
5.96946e-43
4.43804e-43
9.7199e-45
4.49038e-43
4.02092e-45
1.59659e-41
1.51243e-43
1.01682e-39
4.53408e-42
4.91609e-38
-7.99302e-41
2.39982e-36
-1.5668e-38
1.08309e-34
-1.14806e-36
4.4065e-33
-5.96875e-35
1.55981e-31
-2.35841e-33
4.35246e-30
-6.49666e-32
9.05713e-29
-1.30525e-30
1.78522e-27
-3.67349e-29
1.65963e-25
-5.945e-27
9.69113e-23
-2.26047e-24
1.31984e-20
-8.8184e-23
4.21235e-21
3.24012e-19
-5.05096e-41
-8.44119e-40
-2.5885e-41
-1.69625e-40
-2.96634e-41
-1.05374e-40
-2.93604e-41
-6.27688e-41
4.37625e-42
1.92683e-43
6.95149e-42
4.34383e-44
4.73013e-44
1.26736e-45
6.86421e-45
1.69252e-47
2.14653e-44
1.89361e-46
1.79156e-42
-1.79717e-45
9.60383e-41
-8.03012e-43
5.35647e-39
-7.92726e-41
2.86921e-37
-5.78745e-39
1.39185e-35
-3.46731e-37
5.86301e-34
-1.64523e-35
2.04496e-32
-5.44283e-34
5.28171e-31
-1.16934e-32
1.09583e-29
-2.40375e-31
3.95952e-28
-2.14589e-29
1.06988e-25
-8.83556e-27
6.26738e-23
-4.50134e-24
7.31243e-21
-3.45739e-22
-3.84407e-21
1.5965e-19
-7.42448e-43
-1.22019e-41
-2.61268e-43
-1.66411e-42
-2.28307e-43
-7.7531e-43
-1.76062e-43
-3.50792e-43
1.52518e-44
9.50212e-46
2.25399e-44
9.43193e-47
1.30814e-46
1.78734e-48
3.15436e-47
1.12492e-49
1.85553e-45
-4.38901e-48
1.27033e-43
-1.44807e-45
8.45339e-42
-1.60226e-43
5.17282e-40
-1.27125e-41
2.97365e-38
-9.42439e-40
1.54906e-36
-6.24566e-38
6.66703e-35
-3.00228e-36
1.9905e-33
-4.67858e-35
4.02821e-32
-1.4021e-34
8.85318e-31
-2.47512e-32
9.53542e-29
-4.02298e-30
5.6167e-26
-6.39849e-27
3.57762e-23
-4.03013e-24
3.41321e-21
-2.73425e-22
-3.20127e-21
6.05875e-20
-9.8002e-45
-1.59308e-43
-2.35421e-45
-1.47012e-44
-1.54362e-45
-5.05243e-45
-9.05055e-46
-1.68766e-45
6.2677e-47
4.07011e-48
5.70798e-47
1.48395e-49
5.91025e-49
1.47017e-51
6.72876e-49
-1.11902e-51
1.10628e-46
-1.13027e-48
9.22195e-45
-1.62383e-46
6.61112e-43
-1.62164e-44
4.17543e-41
-1.36331e-42
2.7497e-39
-1.60855e-40
1.64134e-37
-9.03685e-39
6.90201e-36
-7.83615e-38
8.3681e-35
-1.54248e-37
2.63549e-34
-2.52084e-35
5.68319e-32
-2.78466e-33
9.69667e-30
-3.27665e-31
2.09513e-26
-2.58623e-27
1.5715e-23
-2.0473e-24
1.18616e-21
-1.14642e-22
-1.20766e-21
1.6615e-20
-1.16645e-46
-1.89297e-45
-1.90027e-47
-1.17855e-46
-9.18172e-48
-2.93136e-47
-3.98042e-48
-6.9905e-48
1.34113e-49
1.5023e-50
1.07748e-49
1.54116e-52
2.76079e-51
1.14979e-54
5.8062e-50
-4.12068e-52
5.97666e-48
-8.92766e-50
5.17863e-46
-1.08527e-47
4.01199e-44
-1.19731e-45
2.9663e-42
-1.92506e-43
3.12237e-40
-1.35347e-41
1.46232e-38
-1.14851e-40
8.60345e-38
-1.74667e-40
1.68052e-37
-8.32817e-39
4.02381e-35
-1.50808e-36
4.32961e-33
-2.20622e-34
5.11191e-31
-1.71914e-32
4.95171e-27
-4.80634e-28
4.48638e-24
-5.17205e-25
2.73563e-22
-2.76368e-23
-3.30924e-22
3.28084e-21
-1.24323e-48
-2.06205e-47
-1.36967e-49
-8.64063e-49
-4.79082e-50
-1.52187e-49
-1.48917e-50
-2.48967e-50
1.59409e-52
4.69244e-53
1.40564e-52
8.82819e-56
1.56747e-53
-4.26028e-56
2.35893e-51
-2.47607e-53
2.52218e-49
-4.18581e-51
2.22887e-47
-4.67012e-49
2.10052e-45
-1.26228e-46
3.0126e-43
-1.6497e-44
1.70685e-41
-1.81417e-43
8.66901e-41
-2.34301e-43
1.25931e-40
-4.64691e-42
9.74064e-39
-9.87842e-40
1.69927e-36
-1.3792e-37
2.39077e-34
-5.79684e-36
1.88438e-32
-9.16282e-34
5.71171e-28
-1.46387e-29
6.94034e-25
-6.33179e-26
4.10662e-23
-4.42293e-24
-9.08059e-23
5.8443e-22
-1.16334e-50
-2.0775e-49
-8.71036e-52
-5.84365e-51
-2.17513e-52
-7.1076e-52
-4.69148e-53
-7.60152e-53
1.10221e-56
3.02753e-57
1.10861e-55
1.99491e-59
3.73461e-55
-2.44248e-57
7.07972e-53
-7.45197e-55
7.75801e-51
-1.30798e-52
6.88067e-49
-1.67208e-50
1.63796e-46
-3.93983e-48
1.79054e-44
-3.60973e-46
1.00849e-43
-2.68751e-45
1.20743e-43
-4.50503e-45
4.15992e-42
-3.42499e-43
8.87831e-40
-6.23698e-41
1.13825e-37
-2.36594e-39
4.56717e-36
-2.43028e-37
7.35276e-34
-4.53605e-35
1.16142e-29
-8.15886e-32
5.61403e-26
-4.46346e-27
4.40926e-24
-5.51706e-25
-2.20803e-23
1.11252e-22
-9.16816e-53
-1.96046e-51
-4.75936e-54
-3.68115e-53
-8.44568e-55
-3.00292e-54
-1.22378e-55
-1.97799e-55
-2.43071e-58
-1.3804e-58
3.82931e-58
-2.47221e-62
8.8932e-57
-5.21116e-59
1.34805e-54
-1.37118e-56
1.73681e-52
-2.3717e-54
1.85724e-50
-4.0297e-52
3.85178e-48
-1.39687e-49
2.91287e-46
-6.12879e-48
1.39516e-45
-5.97175e-48
2.21267e-45
-5.91411e-47
2.46187e-43
-1.30317e-44
4.12453e-41
-1.41673e-42
1.44481e-39
-4.58093e-41
1.45797e-37
-6.7605e-39
2.67908e-35
-1.73861e-36
4.70508e-32
-1.62495e-33
2.72772e-27
-2.29379e-28
3.74167e-25
-5.16926e-26
-3.04518e-24
1.77336e-23
-5.37331e-55
-1.76588e-53
-2.07975e-56
-2.18128e-55
-2.70018e-57
-1.15358e-56
-2.56593e-58
-4.3348e-58
-6.74263e-61
-2.8646e-61
1.25633e-60
-6.37181e-64
1.03541e-58
-3.85266e-61
1.71642e-56
-9.97172e-59
2.35022e-54
-2.41236e-56
3.46099e-52
-6.68004e-54
1.06771e-49
-2.36874e-51
2.14312e-48
-5.07469e-50
1.90905e-48
-3.96364e-50
3.32525e-47
-1.01803e-48
7.25345e-45
-2.09955e-46
7.14346e-43
-8.81661e-45
2.16817e-41
-8.64956e-43
3.09557e-39
-2.83306e-40
8.12407e-37
-1.64498e-37
1.32869e-33
-1.65568e-33
9.82446e-29
-1.21466e-29
2.34033e-26
-2.98513e-27
-2.30013e-25
1.53084e-24
-6.67008e-58
-1.56201e-55
-5.34851e-59
-1.22058e-57
-6.3726e-60
-4.03606e-59
-4.07701e-61
-7.80746e-61
-9.3444e-64
-2.13207e-64
3.19279e-63
-7.9679e-67
4.78014e-61
-5.77524e-64
8.95691e-59
-1.92507e-61
1.81549e-56
-9.24537e-59
4.47279e-54
-6.11479e-56
1.39732e-51
-1.42824e-54
1.40971e-50
-7.93275e-55
1.01567e-50
-2.62009e-53
4.72858e-49