/*--------------------------------*- C++ -*----------------------------------*\
| =========                 |                                                 |
| \\      /  F ield         | OpenFOAM: The Open Source CFD Toolbox           |
|  \\    /   O peration     | Version:  v2012                                 |
|   \\  /    A nd           | Website:  www.openfoam.com                      |
|    \\/     M anipulation  |                                                 |
\*---------------------------------------------------------------------------*/
FoamFile
{
    version     2.0;
    format      ascii;
    class       volScalarField;
    location    "0.75";
    object      alpha.water;
}
// * * * * * * * * * * * * * * * * * * * * * * * * * * * * * * * * * * * * * //

dimensions      [0 0 0 0 0 0 0];


internalField   nonuniform List<scalar> 
2268
(
1
1
1
1
1
1
1
1
1
1
1
1
1
1
1
1
0.999999
0.999972
0.980228
0.953752
0.953694
0.970958
0.999637
1
1
1
1
1
1
1
1
1
1
1
1
1
1
1
1
1
0.999998
0.996753
0.969218
0.953977
0.958895
0.99964
1
1
1
1
1
1
1
1
1
1
1
1
1
1
1
1
1
1
0.999999
0.998373
0.98598
0.982591
0.999642
1
1
1
1
1
1
1
1
1
1
1
1
1
1
1
1
1
1
0.999999
1
1
1
0.999638
1
1
1
1
1
1
1
1
1
1
1
1
1
1
1
1
1
1
1
1
1
0.999993
0.999799
1
1
1
1
1
1
1
1
1
1
1
1
1
1
1
1
1
1
1
1
1
0.999936
0.999604
1
1
1
1
1
1
1
1
1
1
1
1
1
1
1
1
1
1
1
1
1
0.999913
0.999604
1
1
1
1
1
1
1
1
1
1
1
1
1
1
1
1
1
1
1
1
0.999999
0.999947
0.999794
0.304714
0.896678
0.993423
0.992803
0.986908
0.986814
0.986924
0.988274
0.996978
0.997542
0.997526
0.986081
0.973112
0.972693
0.968902
0.945425
0.958997
0.963748
0.941215
0.751195
0.988148
0.993712
0.994589
0.996531
0.997537
0.99755
0.997558
0.997555
0.997558
0.997543
0.997528
0.997477
0.997284
0.993308
0.940983
0.922839
0.937447
0.975263
0.961669
0.985767
0.947782
0.757732
0.848245
0.95393
0.997557
0.997556
0.997557
0.997555
0.997552
0.997476
0.997282
0.996925
0.996668
0.991745
0.922931
0.89989
0.935255
0.952325
0.867506
0.281994
0.16658
0.201543
0.524558
0.935624
0.997559
0.997555
0.997253
0.997461
0.997237
0.997049
0.996687
0.996406
0.996055
0.99564
0.899004
0.885858
0.933354
0.759063
0.159623
0.157587
0.453446
0.687902
0.470656
0.755177
0.868252
0.858982
0.875022
0.967942
0.995765
0.996462
0.996109
0.995637
0.994935
0.969459
0.885851
0.909274
0.643198
0.157589
0.157603
0.580469
0.710597
0.625341
0.214747
0.202425
0.130105
0.177145
0.497162
0.854393
0.995558
0.995125
0.994984
0.993619
0.962264
0.885869
0.894131
0.522083
0.159623
0.168433
0.657646
0.718168
0.717339
0.525864
0.0839907
0.0824134
0.0808361
0.0836073
0.369858
0.990405
0.991574
0.992547
0.991869
0.973364
0.898409
0.883063
0.202879
0.165257
0.475421
0.757838
0.728163
0.718066
0.719105
0.367791
0.0808361
0.0808361
0.0808361
0.222113
0.956633
0.937932
0.962399
0.989096
0.981079
0.980197
0.761943
0.774627
0.795764
0.830936
0.875339
0.923959
0.971706
1
1
1
1
1
1
1
1
1
1
1
0.999999
0.999999
0.999996
0.999978
0.999964
0.042411
0.0573635
0.0806299
0.112926
0.163282
0.235728
0.33171
0.455563
0.600658
0.731384
0.844727
0.932277
0.981834
0.996715
0.999316
0.999989
0.999987
0.999985
0.999984
0.999985
0.999984
0.999964
0.99981
3.70808e-05
6.13914e-05
0.000107048
0.000133104
0.000147559
0.000157677
0.000169932
0.00204115
0.0195784
0.0572485
0.111712
0.182522
0.27816
0.414853
0.583878
0.732536
0.819985
0.859378
0.902403
0.945474
0.97511
0.995227
0.999657
1.31154e-06
2.60664e-06
5.39975e-06
6.90309e-06
7.27635e-06
7.27533e-06
8.1052e-06
9.56973e-06
1.28162e-05
1.25765e-05
8.74889e-06
3.74321e-06
-2.23325e-07
-4.53941e-09
-1.46275e-10
5.77124e-11
0.014033
0.0943518
0.175932
0.259027
0.363635
0.51976
0.669253
4.49329e-08
1.03328e-07
2.4828e-07
3.36334e-07
3.52389e-07
3.37552e-07
3.4425e-07
4.33211e-07
5.4001e-07
4.9594e-07
2.90416e-07
1.00505e-07
-6.20052e-12
5.13274e-12
2.694e-12
6.92443e-12
6.77482e-11
1.24304e-09
2.43145e-08
4.73461e-07
9.12232e-06
0.00031129
0.0481839
1.49456e-09
3.80872e-09
1.01407e-08
1.46348e-08
1.53452e-08
1.41925e-08
1.43379e-08
1.77776e-08
2.04741e-08
1.61682e-08
8.35421e-09
2.38015e-09
1.18074e-10
8.979e-11
1.57189e-12
2.96828e-09
6.08724e-09
1.96986e-09
8.37955e-09
1.19307e-07
1.65786e-06
2.7684e-05
0.000205067
4.68492e-11
1.28216e-10
3.51087e-10
5.14036e-10
5.65325e-10
5.8335e-11
-6.1803e-11
-8.90616e-11
-1.11164e-10
-5.01977e-11
-1.23412e-13
-2.12421e-25
6.6697e-28
-7.45173e-09
-1.61494e-08
-1.69829e-08
-1.24605e-08
-2.02039e-18
1.79179e-09
5.02545e-08
7.25632e-07
7.67928e-06
6.38956e-05
1.55693e-12
3.78742e-12
-1.06983e-12
-4.11701e-14
-4.40758e-17
2.64698e-26
-1.07806e-09
-1.68166e-09
-1.479e-09
-3.2074e-09
-6.12939e-09
-8.82174e-09
-1.12602e-08
-1.58431e-08
-1.96862e-08
-1.98369e-08
-1.75385e-08
-1.12815e-08
-3.16598e-12
1.3561e-08
2.23196e-07
2.53644e-06
2.55853e-05
-4.46619e-16
-3.25669e-31
-4.27975e-11
-2.70385e-10
-7.38605e-10
-1.48299e-09
-2.45102e-09
-3.54186e-09
-4.59032e-09
-5.68691e-09
-6.71264e-09
-7.66975e-09
-8.71444e-09
-1.01479e-08
-1.11013e-08
-1.06818e-08
-8.99782e-09
-6.16439e-09
-6.61715e-13
2.4539e-09
4.60258e-08
6.20863e-07
7.18799e-06
-5.95096e-14
2.4464e-15
-2.31763e-11
-9.94409e-11
-2.45066e-10
-4.73679e-10
-7.96146e-10
-1.21732e-09
-1.7116e-09
-2.23208e-09
-2.69282e-09
-3.0812e-09
-3.44389e-09
-3.80798e-09
-3.98136e-09
-3.72954e-09
-3.04456e-09
-2.05344e-09
0
1.47646e-10
7.09137e-09
1.13157e-07
1.45281e-06
-2.43439e-14
-1.40449e-14
-3.97204e-12
-1.73643e-11
-4.38109e-11
-8.75571e-11
-1.54182e-10
-2.4974e-10
-3.7473e-10
-5.1862e-10
-6.54073e-10
-7.69941e-10
-8.63625e-10
-9.3467e-10
-9.54705e-10
-8.74046e-10
-6.64671e-10
-3.32145e-10
3.07344e-10
7.60048e-10
1.59885e-09
1.58998e-08
2.22414e-07
-2.76227e-15
-5.67298e-15
-4.35838e-13
-2.01973e-12
-5.33517e-12
-1.11082e-11
-2.05089e-11
-3.5061e-11
-5.56444e-11
-8.13611e-11
-1.06141e-10
-1.24585e-10
-1.30611e-10
-1.30808e-10
-1.31447e-10
-1.17177e-10
-7.09771e-11
3.7546e-11
3.052e-10
6.05447e-10
4.57463e-10
2.00634e-09
2.38215e-08
-3.10184e-16
-1.28364e-15
-3.58418e-14
-1.79992e-13
-5.00265e-13
-1.06e-12
-2.00071e-12
-3.53106e-12
-5.88037e-12
-8.83087e-12
-1.18588e-11
-1.3318e-11
-1.02578e-11
-4.5528e-12
-1.73861e-12
9.76733e-13
8.3284e-12
3.53006e-11
1.0326e-10
1.55847e-10
1.07752e-10
2.25927e-10
2.32017e-09
-6.12917e-17
-3.52812e-16
-3.65351e-15
-1.80679e-14
-4.83782e-14
-9.1845e-14
-1.57645e-13
-2.64507e-13
-4.58586e-13
-6.80503e-13
-9.21358e-13
-9.17402e-13
-7.73341e-14
1.56613e-12
2.66811e-12
3.5324e-12
4.28553e-12
5.9093e-12
7.67299e-12
1.1721e-11
1.58197e-11
2.69148e-11
2.38991e-10
-1.54983e-17
-9.18375e-17
-6.06031e-16
-2.55684e-15
-5.90837e-15
-8.69043e-15
-1.11711e-14
-1.53983e-14
-2.70475e-14
-3.70767e-14
-4.71561e-14
-3.38822e-14
5.10941e-14
1.97903e-13
2.90061e-13
3.63728e-13
2.84821e-13
1.81545e-13
2.63847e-13
6.35346e-13
1.47109e-12
3.425e-12
2.39995e-11
-3.45311e-18
-1.8917e-17
-1.04627e-16
-3.76451e-16
-7.45329e-16
-8.45787e-16
-7.42651e-16
-7.11642e-16
-1.19575e-15
-1.32462e-15
-1.23572e-15
1.29475e-16
3.21618e-15
2.60397e-15
3.44164e-15
4.39682e-15
4.64218e-15
5.5628e-15
1.21095e-14
3.75821e-14
1.02334e-13
3.57488e-13
2.40462e-12
-6.03883e-19
-2.88043e-18
-1.39935e-17
-4.38056e-17
-7.54033e-17
-6.88167e-17
-4.33579e-17
-2.66277e-17
-3.71965e-17
-2.10478e-17
1.07709e-17
7.78255e-17
5.47519e-17
5.89685e-17
7.34488e-17
1.00618e-16
1.51037e-16
2.43522e-16
5.6985e-16
1.92132e-15
5.90278e-15
2.66779e-14
2.87414e-13
-7.96009e-20
-3.13837e-19
-1.32078e-18
-3.6039e-18
-5.46432e-18
-4.15695e-18
-1.92836e-18
-7.7958e-19
-6.99844e-19
3.0703e-19
1.515e-18
2.54173e-18
1.69053e-18
1.9276e-18
2.37473e-18
3.4275e-18
5.73492e-18
1.01612e-17
2.58002e-17
1.00654e-16
4.08454e-16
2.68957e-15
2.58122e-14
-8.21403e-21
-2.71258e-20
-9.91408e-20
-2.42339e-19
-3.4629e-19
-2.37986e-19
-7.14765e-20
-1.67855e-20
-3.54334e-21
1.8604e-20
2.84774e-20
3.80824e-20
4.78405e-20
5.56828e-20
6.76054e-20
1.02472e-19
1.94003e-19
4.6923e-19
2.17212e-18
1.52517e-17
1.34582e-16
1.26456e-15
1.44591e-14
-8.26254e-22
-2.79884e-21
-1.02719e-20
-2.5466e-20
-3.83099e-20
-2.40063e-20
-3.36869e-21
-2.31276e-22
1.36291e-22
2.59926e-22
5.22407e-22
8.3566e-22
1.0542e-21
1.20289e-21
1.44941e-21
2.74492e-21
9.67221e-21
7.34518e-20
7.49795e-19
7.08417e-18
1.01039e-16
1.65501e-15
2.44924e-14
-8.97942e-23
-3.24334e-22
-1.24764e-21
-3.24338e-21
-5.06065e-21
-2.49624e-21
-6.03233e-23
1.43491e-23
1.20907e-23
9.67105e-24
1.17292e-23
1.35725e-23
1.47256e-23
1.6548e-23
2.90676e-23
1.62504e-22
2.07381e-21
2.79936e-20
3.39171e-19
3.37981e-18
7.21331e-17
2.0714e-15
3.56862e-14
-8.158e-24
-2.74285e-23
-1.04157e-22
-2.70899e-22
-3.9374e-22
9.90826e-24
4.59134e-23
2.62231e-24
5.52709e-25
4.332e-25
3.15926e-25
1.83009e-25
1.04116e-25
2.05139e-25
2.23471e-24
4.05751e-23
6.94293e-22
1.07243e-20
1.36012e-19
1.36797e-18
4.31496e-17
1.91553e-15
3.69656e-14
-4.74005e-25
-1.17928e-24
-3.74602e-24
-8.56915e-24
-3.99991e-24
3.68704e-23
3.56824e-24
2.87447e-26
8.91118e-27
9.45225e-27
8.82237e-27
5.41993e-27
2.76419e-27
2.51972e-26
5.57775e-25
1.1441e-23
2.21874e-22
3.71571e-21
4.76839e-20
4.84918e-19
2.17044e-17
1.39708e-15
3.2453e-14
-1.95139e-26
-3.38965e-26
-8.70709e-26
-1.70776e-25
2.26598e-26
8.10982e-25
1.2954e-26
5.21927e-29
2.69896e-29
2.3534e-29
1.81889e-29
1.78858e-29
1.81284e-28
5.24e-27
1.30429e-25
3.0494e-24
6.5452e-23
1.16692e-21
1.49307e-20
1.55168e-19
1.03339e-17
9.4087e-16
2.53308e-14
-6.22701e-28
-7.44502e-28
-1.52831e-27
-2.53533e-27
5.2259e-28
2.14579e-28
3.14275e-29
3.02867e-31
8.0591e-32
1.31548e-31
1.98702e-31
1.20929e-30
3.84757e-29
1.08265e-27
2.96144e-26
7.56024e-25
1.7713e-23
3.27866e-22
4.19706e-21
4.65762e-20
5.5105e-18
6.77937e-16
1.86728e-14
-1.62953e-29
-1.33829e-29
-2.17967e-29
-3.02102e-29
6.1503e-34
3.60364e-31
1.77391e-31
2.16061e-33
1.3108e-33
2.62406e-33
6.52572e-33
1.78603e-31
6.29902e-30
2.04597e-28
6.17325e-27
1.73065e-25
4.289e-24
7.98849e-23
1.03922e-21
1.45962e-20
3.57702e-18
5.06819e-16
1.33398e-14
-3.62403e-31
-2.04683e-31
-2.62661e-31
-3.00129e-31
-1.29281e-38
1.71115e-33
9.00082e-34
1.03409e-35
7.33275e-36
2.45577e-35
5.96847e-34
2.73011e-32
1.01102e-30
3.5931e-29
1.18839e-27
3.56141e-26
8.96593e-25
1.65397e-23
2.27984e-22
6.10836e-21
2.62597e-18
3.61776e-16
9.26593e-15
-7.01387e-33
-2.72759e-33
-2.73515e-33
-2.53745e-33
-1.25061e-40
7.01112e-36
3.92575e-36
3.48086e-38
2.67244e-38
1.50293e-36
8.35916e-35
3.48657e-33
1.47176e-31
5.76702e-30
2.04406e-28
6.33522e-27
1.55878e-25
2.86183e-24
4.85044e-23
3.85837e-21
1.99026e-18
2.46469e-16
6.02995e-15
-1.20102e-34
-3.21626e-35
-2.49464e-35
-1.84575e-35
-8.51571e-43
2.38118e-38
1.44176e-38
1.48108e-40
3.36019e-39
1.85453e-37
8.59692e-36
4.15832e-34
1.93808e-32
8.21458e-31
3.03527e-29
9.33976e-28
2.13827e-26
3.87626e-25
1.20321e-23
2.82816e-21
1.47315e-18
1.56816e-16
3.39884e-15
-1.84177e-36
-3.39166e-37
-2.00957e-37
-1.16131e-37
-1.1664e-43
6.56898e-41
4.33991e-41
3.83775e-42
2.43247e-40
1.42885e-38
8.2643e-37
4.41881e-35
2.22829e-33
1.02273e-31
3.90403e-30
1.04198e-28
1.87395e-27
3.56279e-26
3.30969e-24
1.72253e-21
9.79931e-19
8.5765e-17
1.51859e-15
-2.55261e-38
-3.22394e-39
-1.43761e-39
-6.3324e-40
-3.9344e-44
1.75763e-43
1.05706e-43
2.08054e-43
1.56096e-41
1.13247e-39
7.12229e-38
3.96146e-36
2.30641e-34
1.2253e-32
4.71086e-31
6.0253e-30
1.66038e-29
2.60899e-27
3.95087e-25
7.59979e-22
5.11899e-19
3.57351e-17
5.03567e-16
-3.2201e-40
-2.7804e-41
-9.17025e-42
-2.99231e-42
-1.04691e-46
3.05375e-46
2.95879e-46
1.08106e-44
9.22738e-43
7.01131e-41
4.79904e-39
3.14485e-37
2.96279e-35
1.32804e-33
9.28797e-33
1.6009e-32
2.45418e-30
2.37609e-28
2.50463e-26
2.17015e-22
1.77745e-19
1.01078e-17
1.21821e-16
-3.71924e-42
-2.18894e-43
-5.23496e-44
-1.22378e-44
-1.31862e-49
3.34153e-49
4.44023e-48
4.61193e-46
4.30205e-44
3.35377e-42
2.80524e-40
3.61621e-38
1.97886e-36
1.36728e-35
1.79168e-35
7.87205e-34
1.23988e-31
1.59176e-29
1.1349e-27
3.09436e-23
3.42684e-20
1.88928e-18
2.61655e-17
-3.95691e-44
-1.58309e-45
-2.68494e-46
-4.32173e-47
-8.34135e-54
8.30458e-52
1.24918e-49
1.537e-47
1.47732e-45
1.15879e-43
2.46877e-41
2.57767e-39
2.29221e-38
2.51004e-38
4.44082e-37
8.52608e-35
1.01965e-32
3.77449e-31
5.52558e-29
7.97889e-25
3.54794e-21
2.57839e-19
6.12103e-18
-3.90852e-46
-1.05888e-47
-1.24247e-48
-1.31294e-49
-2.02222e-52
1.56063e-53
2.53791e-51
3.29629e-49
3.73012e-47
3.54811e-45
6.64932e-43
4.96372e-41
3.09731e-40
4.49237e-40
3.07124e-38
4.85003e-36
1.59752e-34
1.49723e-32
2.57174e-30
4.21049e-27
2.27572e-22
2.89804e-20
1.28092e-18
-3.62763e-48
-6.59172e-50
-5.21012e-51
-3.40799e-52
-6.69234e-55
1.69075e-55
3.38976e-53
4.81404e-51
5.78065e-49
7.58893e-47
2.14518e-44
7.80217e-43
6.44717e-43
5.57678e-42
1.08717e-39
1.03176e-37
2.98788e-36
4.03201e-34
1.01438e-31
1.59705e-28
1.11822e-23
2.51557e-21
1.55074e-19
-3.22251e-50
-3.82628e-52
-1.98532e-53
-7.46023e-55
-1.17743e-57
9.48866e-58
1.85936e-55
2.94817e-53
5.21366e-51
1.14713e-48
3.34728e-46
6.0684e-45
4.08854e-45
9.20683e-44
1.67132e-41
6.22111e-40
5.55342e-38
1.67487e-35
1.71634e-32
1.75561e-28
5.97792e-25
1.37891e-22
1.08556e-20
-2.81693e-52
-2.11844e-54
-6.88343e-56
-1.33121e-57
-1.07015e-60
6.77023e-61
2.25005e-58
4.98651e-56
1.81695e-53
9.74131e-51
1.90345e-49
9.06664e-50
2.60391e-48
2.05406e-46
2.37541e-44
4.47936e-42
1.53728e-39
7.33815e-37
3.47857e-32
7.98484e-28
6.34318e-26
4.49699e-24
4.70773e-22
-2.50792e-54
-1.14432e-56
-2.18036e-58
-1.84169e-60
-2.09088e-64
7.18028e-65
3.65736e-61
1.20657e-59
1.32591e-61
7.10565e-61
4.77023e-58
2.8957e-55
1.60008e-52
6.41275e-50
4.03128e-47
2.99574e-44
2.5553e-41
2.82094e-38
3.20538e-32
1.0908e-28
5.25326e-27
6.75373e-26
3.66834e-24
-2.3776e-56
-6.13495e-59
-6.2262e-61
-1.77566e-63
-2.67393e-88
-4.62077e-88
3.1971e-77
4.3551e-73
7.66836e-70
1.34626e-66
1.72643e-63
1.90879e-60
1.86051e-57
1.7279e-54
1.69328e-51
1.96455e-48
2.80453e-45
4.63578e-42
2.2535e-37
1.38288e-31
2.94778e-29
4.14204e-28
1.5285e-27
-2.52024e-58
-3.29659e-61
-1.53182e-63
-8.13788e-67
-4.99388e-96
-1.65359e-95
-6.71536e-95
-3.92753e-91
-9.0769e-91
-5.32708e-87
4.28789e-83
3.2572e-94
2.12966e-90
1.14488e-69
2.24222e-65
1.81794e-61
1.30564e-57
5.18969e-54
2.89212e-42
3.92511e-35
7.27e-32
2.21551e-30
6.43736e-30
-3.0957e-60
-1.7468e-63
-2.95282e-66
-7.99791e-114
-1.62141e-111
-4.38701e-110
-1.17064e-106
-5.80623e-106
-4.56848e-106
-3.51038e-106
3.38247e-92
3.23004e-94
4.19121e-90
8.03873e-81
1.78651e-82
1.57921e-78
2.53724e-70
6.9132e-70
-3.21722e-89
3.07276e-49
3.69004e-42
3.11196e-39
4.68279e-38
0.99986
0.997357
0.869392
0.743049
0.999658
0.998764
0.953225
0.804787
0.998628
0.995364
0.993353
0.988814
0.717629
0.717427
0.805621
0.920117
0.079649
0.075418
0.258252
0.548007
0.00145161
0.00551758
0.0193183
0.160004
0.000409774
0.00274762
0.00729663
0.0341595
0.000153452
0.00106953
0.00331291
0.0105122
4.57594e-05
0.000348262
0.00132406
0.00484071
1.07627e-05
8.68675e-05
0.000439454
0.00169675
2.24107e-06
1.29574e-05
7.11375e-05
0.000289991
2.74557e-07
1.49968e-06
8.59218e-06
4.06615e-05
2.75116e-08
1.65575e-07
9.05836e-07
4.38552e-06
2.95175e-09
1.8249e-08
1.01884e-07
5.31401e-07
2.69846e-10
1.67367e-09
1.06095e-08
5.77488e-08
2.32387e-11
1.38216e-10
9.19811e-10
5.4992e-09
2.00261e-12
1.09957e-11
7.26123e-11
4.62258e-10
1.88735e-13
9.48293e-13
5.90826e-12
3.60866e-11
4.45904e-14
1.61723e-13
6.46967e-13
3.11656e-12
6.65378e-14
1.13878e-13
2.17012e-13
6.04424e-13
9.95443e-14
1.83712e-13
3.34829e-13
5.73393e-13
1.06027e-13
2.00358e-13
3.86664e-13
6.73497e-13
9.55526e-14
1.83918e-13
3.71748e-13
6.41599e-13
7.67196e-14
1.52049e-13
3.3115e-13
6.09095e-13
5.86416e-14
1.23938e-13
3.05995e-13
6.67458e-13
4.4213e-14
1.04989e-13
2.96981e-13
7.78308e-13
3.32598e-14
8.9174e-14
2.70184e-13
7.10374e-13
2.32194e-14
6.45353e-14
1.83359e-13
4.03834e-13
1.31653e-14
3.40604e-14
8.26737e-14
1.38712e-13
5.4927e-15
1.22085e-14
2.55295e-14
3.16987e-14
1.64345e-15
3.20155e-15
5.28988e-15
7.23199e-15
3.87761e-16
8.50807e-16
1.9942e-15
1.29304e-14
1.0976e-16
4.28723e-16
1.9309e-15
3.05932e-14
4.40356e-17
3.10635e-16
1.3335e-15
1.88639e-14
1.39199e-17
1.5211e-16
6.50937e-16
6.09127e-16
1.88589e-18
3.25325e-17
1.76768e-16
1.37301e-16
1.45775e-19
3.75375e-18
2.33039e-17
1.34704e-17
7.96469e-21
3.20875e-19
1.90766e-18
1.33077e-19
8.76555e-23
3.07842e-21
1.36077e-20
2.22718e-22
1.25963e-26
1.61656e-24
1.19854e-23
1.03348e-25
2.62021e-32
1.63526e-37
2.91428e-36
8.64212e-39
5.45374e-41
2.00428e-47
-1.79083e-42
-2.80188e-39
0.658371
0.258181
0.467742
0.815876
0.79738
0.5858
0.416852
0.576862
0.549703
0.366272
0.0809698
0.0878691
0.232534
0.724289
0.449978
0.540145
0.971836
0.980197
0.980197
0.730754
0.863989
0.897257
0.86344
0.308623
0.00246695
0.00579492
0.046365
0.367698
0.388435
0.143593
0.121653
0.531313
0.408324
0.12742
0.128572
0.591861
0.977972
0.980198
0.98497
0.981295
0.863224
0.123801
4.67729e-05
7.31854e-05
0.000478294
0.00333551
0.0560535
0.38251
0.238686
0.269443
0.559998
0.349104
0.127439
0.127481
0.263716
0.893457
0.957374
0.966613
0.898141
0.112064
5.21765e-05
5.21735e-05
5.30504e-05
7.67035e-05
0.000497565
0.042628
0.310819
0.163813
0.343222
0.561102
0.307537
0.12748
0.127431
0.164229
0.283602
0.842562
0.720896
0.611283
5.46114e-05
5.21585e-05
5.37549e-05
6.76999e-05
9.00427e-05
0.000795265
0.0272973
0.0596405
0.184636
0.52577
0.558302
0.126765
0.140435
0.124626
0.0627813
0.0612095
0.476647
0.46537
0.607589
0.0216801
5.46114e-05
6.8545e-05
9.5782e-05
0.000327605
0.00274435
0.0221764
0.0216848
0.291267
0.711056
0.500238
0.0621269
0.0882692
0.108555
0.0533009
0.0526003
0.0674276
0.292912
0.577012
0.098954
8.38181e-05
0.000146202
0.000397814
0.00947664
0.0171302
0.00610989
0.0103005
0.140542
0.712901
0.452868
0.0594392
0.0638499
0.0482357
0.0539914
0.0826749
0.0665509
0.153759
0.480542
0.226721
0.00813524
0.000325897
0.00217469
0.00895279
0.00545468
0.000603929
0.00264814
0.187167
0.713273
0.390826
0.0512014
0.0344392
0.0284592
0.0973158
0.104526
0.0880286
0.0641606
0.330562
0.355645
0.109889
0.000411809
0.000480305
0.0011738
0.000240514
8.0599e-05
0.000607736
0.596096
0.713162
0.324419
0.0423867
0.0131731
0.026543
0.0890724
0.107391
0.107391
0.0164146
0.250162
0.355645
0.272747
0.000217263
0.000126122
0.000123599
6.77173e-05
4.80287e-05
0.0245327
0.70842
0.713205
0.272322
0.0371471
0.00661616
0.00892909
0.010044
0.0569766
0.107752
0.00154633
0.0945436
0.35476
0.34644
0.147797
0.000109232
6.98689e-05
4.80395e-05
4.80393e-05
0.515384
0.70373
0.576617
0.18879
0.02477
0.000856973
0.00295166
0.00273485
0.0136935
0.0984783
0.000200427
0.00325545
0.162627
0.336097
0.336097
0.084671
0.000123575
0.0356898
0.352184
0.672616
0.601088
0.0465683
0.038647
0.0137492
0.000110963
0.000317594
0.00256049
0.08784
0.0882865
2.68078e-05
0.000150877
0.000612277
0.0911499
0.314238
0.409209
0.42218
0.439432
0.439355
0.327712
0.0207967
4.80272e-05
0.000213598
0.00680769
1.89453e-05
2.27986e-07
0.00311521
0.111452
0.111433
3.06408e-06
1.71142e-05
7.13622e-05
0.000965595
0.0610508
0.196461
0.236748
0.195158
0.0740276
5.26564e-06
6.14822e-06
3.83556e-05
0.000323297
4.26152e-05
2.57238e-06
2.27986e-07
0.00271003
0.111445
0.111458
4.00759e-07
1.85011e-06
9.51565e-06
3.82647e-05
7.65689e-05
0.000343221
0.00147881
5.28094e-06
5.20788e-06
5.26564e-06
5.21696e-06
3.1902e-05
4.53747e-05
2.24534e-06
2.93325e-07
2.24164e-07
0.00401305
0.11189
0.11155
4.654e-08
2.34847e-07
1.03499e-06
4.14008e-06
8.36251e-06
5.93594e-06
2.08034e-06
8.38264e-06
8.73089e-06
5.22808e-06
1.51014e-05
1.51051e-05
7.96929e-07
2.42286e-06
2.25041e-05
1.3599e-07
0.00471563
0.11218
0.111496
4.83559e-09
2.62974e-08
1.20493e-07
4.44881e-07
7.82666e-07
6.82159e-07
1.06424e-06
2.31554e-05
2.38651e-05
6.87879e-06
9.14773e-06
2.72767e-06
1.17866e-07
5.07592e-07
1.07908e-05
3.62059e-08
0.00377045
0.0544463
0.112184
4.08983e-10
2.69174e-09
1.24507e-08
4.02815e-08
5.87161e-08
2.90361e-08
6.53409e-08
1.3573e-05
2.38654e-05
1.095e-05
7.30258e-07
7.89033e-08
2.62456e-08
3.07841e-07
3.61508e-08
3.62059e-08
0.00172675
0.00780519
0.111647
3.42623e-11
2.4213e-10
1.12928e-09
3.80871e-09
5.75638e-09
3.06948e-09
5.54414e-08
1.35879e-07
1.65126e-05
1.07967e-05
1.90647e-07
2.57091e-08
1.43112e-08
2.92589e-07
5.72387e-08
3.61508e-08
0.000215243
0.00151134
0.109756
3.9137e-12
2.41932e-11
5.09819e-11
2.99627e-10
5.49357e-10
4.29132e-10
8.20851e-08
1.95885e-07
8.47752e-07
3.1876e-06
9.29835e-07
1.37376e-08
9.34459e-09
4.51174e-08
3.95816e-08
3.65451e-08
2.67057e-05
9.85445e-06
0.106763
1.05602e-12
5.24414e-12
2.47065e-11
6.83105e-11
1.23141e-10
1.64781e-10
2.20363e-07
3.15875e-07
7.08451e-08
2.48256e-08
4.67793e-07
9.87889e-08
3.90475e-09
3.38303e-09
5.31007e-08
5.36926e-08
1.83157e-06
1.93377e-06
0.10486
1.72329e-12
8.413e-12
2.76044e-11
5.09012e-11
7.8844e-11
1.23141e-10
2.34161e-07
3.1608e-07
7.19478e-08
5.03985e-09
7.70308e-09
3.89819e-08
5.71922e-09
3.38303e-09
1.50221e-07
1.46859e-07
2.87093e-08
3.87917e-08
0.100868
3.06323e-12
1.45182e-11
5.94699e-11
1.17104e-10
1.28702e-10
1.36497e-10
5.03013e-08
7.73036e-08
2.35042e-08
1.87955e-09
1.54889e-09
1.20946e-09
9.63469e-10
6.23936e-08
1.56574e-07
1.46788e-07
2.34354e-09
1.36662e-09
0.0603249
5.29521e-12
3.06833e-11
1.41855e-10
2.25638e-10
2.7835e-10
2.08949e-10
2.21337e-10
6.64734e-10
1.9992e-09
1.21479e-09
1.15574e-09
9.46718e-10
9.07944e-10
6.63937e-08
1.56574e-07
3.62673e-08
7.31046e-10
-4.61379e-07
0.00672818
5.89182e-12
4.29399e-11
1.96207e-10
3.09731e-10
3.98673e-10
3.9183e-10
3.60733e-10
4.44514e-10
6.31956e-10
9.42005e-10
1.12338e-09
9.03303e-10
9.00696e-10
4.1886e-08
1.44e-07
1.36222e-08
9.90848e-10
-1.60499e-05
0.00115285
5.14482e-12
4.31401e-11
1.82508e-10
3.24435e-10
4.30923e-10
4.23073e-10
4.10783e-10
4.31694e-10
4.84459e-10
6.80593e-10
1.00934e-09
8.93681e-10
8.97344e-10
2.46581e-08
7.88181e-10
9.39072e-10
1.0655e-09
0.00519192
0.00525995
3.34489e-12
3.89422e-11
1.22533e-10
3.465e-10
4.3559e-10
4.21957e-10
9.06569e-10
6.15049e-10
5.24193e-10
6.70422e-10
8.57848e-10
8.93728e-10
9.01274e-10
1.00695e-09
7.48143e-10
7.66011e-10
9.84613e-10
0.0190237
0.026913
1.71662e-12
2.73789e-11
5.35266e-11
5.32577e-10
4.31925e-10
1.39164e-09
7.56823e-09
1.20272e-08
3.99594e-09
6.9539e-10
8.26164e-10
8.89403e-10
9.01031e-10
7.19416e-10
7.24036e-10
7.25973e-10
1.09584e-09
0.0155452
0.0317008
7.36305e-13
1.21995e-11
2.06127e-11
6.09565e-10
4.4268e-10
3.84627e-09
1.41539e-08
1.41539e-08
1.40269e-08
3.26951e-09
8.50983e-10
8.63753e-10
7.77494e-10
7.18102e-10
2.46593e-09
8.21108e-08
2.34474e-09
0.00192452
0.0317872
3.0036e-13
3.93295e-12
1.00821e-11
4.8166e-10
1.19085e-09
3.98202e-09
7.31713e-09
9.44323e-09
1.38972e-08
1.38818e-08
5.30543e-09
1.06733e-09
7.18527e-10
7.1933e-10
6.57837e-08
1.84281e-07
7.25943e-09
1.31741e-05
0.0316721
2.50481e-13
1.57218e-12
1.25205e-11
3.17499e-10
1.60171e-09
1.69017e-09
1.70253e-09
1.86472e-09
1.27065e-08
1.4625e-08
1.33773e-08
3.42369e-09
7.24778e-10
7.18145e-10
1.90609e-07
2.59561e-07
2.60402e-08
3.50008e-08
0.0314177
4.17989e-13
1.69816e-12
1.04178e-11
7.71954e-11
9.37221e-10
1.98366e-10
1.5965e-07
1.32329e-07
1.81603e-08
9.1796e-09
8.54682e-09
2.72598e-09
7.49361e-10
3.39592e-08
2.63318e-07
2.63318e-07
4.95285e-08
5.0801e-08
0.0310788
9.50936e-13
2.79954e-12
6.53435e-12
1.91538e-11
2.17572e-10
2.06467e-10
2.85225e-07
1.13501e-07
2.15709e-09
1.53388e-09
1.30094e-09
7.68334e-10
7.39697e-10
1.17856e-07
2.56855e-07
2.14062e-07
6.30384e-08
1.01331e-07
0.0202758
1.36331e-12
5.20035e-12
8.03095e-12
1.29011e-11
4.89631e-11
2.2921e-11
1.375e-07
2.45766e-07
1.2842e-09
8.28995e-10
7.52782e-10
7.39697e-10
7.40074e-10
2.52254e-08
8.73308e-08
8.88597e-08
1.4787e-07
3.55025e-07
2.31615e-05
9.17013e-13
5.84568e-12
1.3067e-11
1.62854e-11
2.62041e-11
2.27889e-11
2.02483e-11
9.71297e-07
3.29758e-06
1.02959e-05
1.11244e-05
7.54174e-06
1.14123e-06
2.74434e-08
4.82932e-08
3.33107e-06
2.48583e-05
1.80721e-05
1.12802e-05
4.086e-13
4.32952e-12
1.33713e-11
2.07577e-11
3.32433e-11
2.27923e-11
2.27923e-11
2.17493e-10
1.64478e-05
1.75423e-05
1.77764e-05
1.77827e-05
1.17725e-05
1.48369e-07
6.39401e-08
7.98137e-05
0.000171293
6.58932e-05
0.00128234
7.26129e-14
1.63561e-12
1.02274e-11
2.64523e-11
1.12509e-10
3.69549e-10
1.25602e-10
1.45782e-10
6.56777e-06
1.77888e-05
1.77838e-05
1.77814e-05
5.50292e-06
4.66197e-07
7.2777e-05
0.000194021
0.000181706
6.30535e-05
0.00842795
1.08584e-14
4.98995e-13
5.54396e-12
2.39805e-11
1.44531e-10
1.37421e-09
3.01613e-09
2.60658e-09
2.45073e-09
5.89505e-06
1.22903e-05
6.14467e-06
9.92864e-08
3.00392e-05
0.000194021
0.000194021
8.82781e-05
6.68872e-05
0.0084826
9.74024e-17
1.95874e-14
8.21606e-13
1.058e-11
8.99345e-11
1.42156e-09
5.36529e-09
5.25545e-09
1.6811e-09
8.92448e-09
1.63301e-07
1.15988e-08
5.99345e-08
7.76566e-06
0.00012157
0.000121578
1.13487e-05
1.82689e-09
0.00841681
3.94801e-21
5.96182e-17
1.33889e-14
1.06278e-12
2.04787e-11
4.33346e-10
3.30635e-09
4.52763e-09
1.22362e-09
7.0662e-10
1.20282e-09
1.5336e-09
9.59857e-08
5.88568e-08
2.18023e-06
5.69191e-07
8.99651e-11
8.68187e-12
0.00649895
3.40829e-27
1.93144e-20
1.21296e-16
3.37593e-14
1.62179e-12
3.53665e-11
3.62073e-10
1.47969e-09
1.11952e-09
3.59031e-10
3.78775e-10
8.8375e-10
4.2074e-08
2.45832e-09
6.74951e-10
8.56087e-11
8.68187e-12
1.4738e-12
0.00438012
2.08094e-35
6.76418e-28
1.72724e-20
1.69439e-16
3.49313e-14
1.10768e-12
6.15255e-12
8.37171e-11
3.59317e-10
3.56128e-10
3.59034e-10
5.17675e-10
6.41903e-10
1.29619e-09
7.28636e-10
6.82268e-10
5.32377e-11
-9.5906e-29
0.000257693
)
;

boundaryField
{
    leftWall
    {
        type            zeroGradient;
    }
    rightWall
    {
        type            zeroGradient;
    }
    lowerWall
    {
        type            zeroGradient;
    }
    atmosphere
    {
        type            inletOutlet;
        inletValue      uniform 0;
        value           nonuniform List<scalar> 
46
(
-3.0957e-60
-1.7468e-63
-2.95282e-66
0
0
0
0
0
0
0
0
0
0
0
0
0
0
0
0
0
0
0
0
0
0
0
0
0
0
0
0
0
1.10768e-12
6.15255e-12
8.37171e-11
3.59317e-10
3.56128e-10
3.59034e-10
5.17675e-10
6.41903e-10
1.29619e-09
7.28636e-10
0
0
0
0.000257693
)
;
    }
    defaultFaces
    {
        type            empty;
    }
}


// ************************************************************************* //
