/*--------------------------------*- C++ -*----------------------------------*\
| =========                 |                                                 |
| \\      /  F ield         | OpenFOAM: The Open Source CFD Toolbox           |
|  \\    /   O peration     | Version:  v2012                                 |
|   \\  /    A nd           | Website:  www.openfoam.com                      |
|    \\/     M anipulation  |                                                 |
\*---------------------------------------------------------------------------*/
FoamFile
{
    version     2.0;
    format      ascii;
    class       volScalarField;
    location    "0.75";
    object      epsilon;
}
// * * * * * * * * * * * * * * * * * * * * * * * * * * * * * * * * * * * * * //

dimensions      [0 2 -3 0 0 0 0];


internalField   nonuniform List<scalar> 
2268
(
0.0182186
0.0452464
0.0694287
0.0896464
0.106049
0.120104
0.133561
0.147151
0.161
0.174911
0.188411
0.200839
0.211522
0.219623
0.223086
0.219948
0.209
0.191105
0.170115
0.149063
0.131244
0.108928
0.0680562
0.0227588
0.0336153
0.0442228
0.0532972
0.0610915
0.0679086
0.0743115
0.0805647
0.086706
0.0926599
0.0982811
0.103378
0.107742
0.111056
0.112642
0.111938
0.108659
0.103112
0.0962879
0.0895322
0.0838742
0.0786888
0.075438
0.0284574
0.030678
0.0389482
0.046599
0.053222
0.0589671
0.0642431
0.0692774
0.0741322
0.0787796
0.0831446
0.0871244
0.0905872
0.0933595
0.0951268
0.0956533
0.0948725
0.0930461
0.0908676
0.0894105
0.0897226
0.0929826
0.107475
0.0304809
0.0290507
0.0364644
0.0437263
0.050112
0.055637
0.0606296
0.0653141
0.0697776
0.0740195
0.0779986
0.0816576
0.0849205
0.0876899
0.0898259
0.0912486
0.0920252
0.0925011
0.0934467
0.0961134
0.102
0.112811
0.143143
0.0297247
0.0277068
0.0347671
0.0419814
0.0484398
0.0540077
0.0589675
0.0635585
0.0678942
0.0719941
0.0758394
0.0794076
0.0826684
0.0855818
0.0881079
0.0902654
0.0922236
0.0944485
0.0979295
0.104441
0.116576
0.137376
0.187924
0.0274377
0.0264049
0.0333813
0.0407626
0.0474382
0.0531497
0.0581702
0.0627658
0.0670757
0.0711339
0.0749407
0.0785055
0.081838
0.0849433
0.087844
0.0906242
0.093528
0.0971409
0.102725
0.112808
0.131959
0.167742
0.253005
0.0250742
0.0250915
0.0321231
0.0398592
0.0468233
0.0527131
0.0578319
0.0624754
0.0668027
0.0708588
0.0746642
0.0782607
0.081693
0.0850014
0.0882477
0.0915542
0.0952097
0.0998882
0.107088
0.120122
0.146351
0.203598
0.35631
0.0232057
0.0237678
0.0309254
0.0391942
0.046458
0.0525145
0.057739
0.0624496
0.0668128
0.070882
0.0747017
0.0783454
0.0818867
0.0853921
0.0889479
0.0926911
0.096922
0.102348
0.110566
0.125343
0.156499
0.234997
0.513751
1.19046
1.28148
1.91649
2.37527
2.64525
2.69818
2.55203
2.58864
2.79794
3.11826
3.53776
3.98584
4.35973
4.44481
4.01248
3.17433
2.24992
1.20526
0.268492
1.15821
1.93821
1.76857
1.78912
1.93974
1.89403
1.60382
1.44545
1.41819
1.46337
1.55956
1.68092
1.78907
1.80987
1.66145
1.38965
1.08228
0.714331
0.271083
1.37651
1.93073
1.93229
2.54064
3.16887
3.20741
2.36098
1.66172
1.30994
1.21358
1.23827
1.31349
1.39121
1.40404
1.28047
1.08114
0.885228
0.665501
0.399647
1.41688
1.91509
2.34086
4.02159
5.71981
6.1791
4.3699
2.51013
1.51283
1.19468
1.14758
1.19313
1.24795
1.24262
1.11265
0.935107
0.794602
0.66446
0.513874
1.39266
1.81841
2.94571
5.33058
5.99747
7.5398
7.53221
4.34201
2.06716
1.30911
1.14964
1.15807
1.18141
1.14607
0.998993
0.831527
0.727488
0.657649
0.576268
1.32053
1.70616
2.93504
3.12815
2.86985
4.04804
6.56769
6.13389
3.48999
1.68894
1.26776
1.18625
1.15694
1.07977
0.912806
0.750092
0.670889
0.638918
0.595896
1.20043
1.64707
2.31796
1.7126
1.51347
1.9823
3.6933
5.01648
4.96466
3.63762
1.89409
1.33167
1.16284
1.03706
0.852146
0.68916
0.625228
0.614098
0.590678
1.1225
1.67579
1.82929
1.3298
1.15627
1.23613
2.0711
3.17668
3.69978
4.31404
3.10672
1.72792
1.22749
1.02468
0.819341
0.648975
0.593279
0.588664
0.566499
0.0207061
0.0220196
0.0297626
0.0389622
0.046465
0.0525852
0.0578632
0.0626216
0.0670249
0.0711205
0.0749825
0.0787175
0.0824301
0.0862159
0.0901785
0.0944499
0.0993026
0.105388
0.114149
0.129
0.158429
0.220738
0.345864
0.0210622
0.0224011
0.0309468
0.0400305
0.0471175
0.0529496
0.0581766
0.0630748
0.0675842
0.0717265
0.0756448
0.0794698
0.0833346
0.0873768
0.0916993
0.0963863
0.101639
0.107893
0.11598
0.127859
0.14816
0.18579
0.258463
0.0599001
0.0362008
0.034598
0.0415237
0.04804
0.0535824
0.0586909
0.0637235
0.0682768
0.0722388
0.0761401
0.0800805
0.0841911
0.0885478
0.0930857
0.0979097
0.103383
0.109743
0.117343
0.127449
0.143174
0.170013
0.218695
0.115113
0.0696275
0.0616568
0.0608176
0.063894
0.0694633
0.0763827
0.0803007
0.0751976
0.0740755
0.0769088
0.0804924
0.0844181
0.0886927
0.0931941
0.0982953
0.10474
0.111504
0.119027
0.128987
0.145268
0.174176
0.224111
0.137219
0.0861404
0.0784656
0.0760559
0.0760166
0.0786618
0.0837637
0.0889659
0.0922423
0.0954683
0.0993093
0.103393
0.107316
0.110959
0.114002
0.114635
0.110107
0.112913
0.120079
0.130049
0.1476
0.191978
0.265905
0.151305
0.0940348
0.0868273
0.0848102
0.0843358
0.0855537
0.0885214
0.092243
0.0956272
0.0993517
0.104323
0.110372
0.117076
0.123793
0.129343
0.133571
0.140815
0.157202
0.180587
0.212475
0.254996
0.296543
0.314605
0.159637
0.0982691
0.0907982
0.0893854
0.0894534
0.0905552
0.0927122
0.0955701
0.0986253
0.102092
0.106615
0.112411
0.119302
0.126953
0.13517
0.145187
0.162077
0.190888
0.229188
0.27377
0.323674
0.377211
0.42782
0.165567
0.100325
0.0921281
0.0910537
0.0917891
0.0933647
0.0956033
0.0983311
0.101319
0.10464
0.108693
0.11383
0.120198
0.127865
0.137238
0.15024
0.171141
0.204386
0.250083
0.304419
0.359449
0.402721
0.42669
0.169764
0.100913
0.0918495
0.0908019
0.0919961
0.0941127
0.0967693
0.0997802
0.103
0.106443
0.110348
0.115046
0.120849
0.128104
0.137521
0.150934
0.17199
0.204431
0.249674
0.304733
0.360085
0.401747
0.433898
0.172597
0.100462
0.0905829
0.08938
0.0907908
0.0932992
0.0963801
0.099791
0.103389
0.107144
0.111188
0.115778
0.121245
0.128039
0.136938
0.149478
0.168405
0.197062
0.237129
0.28696
0.339187
0.383099
0.427643
0.174104
0.0992132
0.0886577
0.087231
0.088686
0.0914092
0.0947983
0.0985665
0.102552
0.106693
0.111044
0.115778
0.121178
0.127671
0.135962
0.147276
0.163591
0.187453
0.220918
0.263317
0.310215
0.35493
0.405027
0.174195
0.0973338
0.0862772
0.084621
0.0860165
0.0888125
0.0923759
0.0963988
0.100708
0.105217
0.109931
0.114953
0.120495
0.126907
0.134765
0.145016
0.159103
0.178887
0.206073
0.241022
0.281656
0.324448
0.374163
0.172855
0.0949726
0.083596
0.0817349
0.0830146
0.0857827
0.0894042
0.0935699
0.0981054
0.102915
0.107974
0.113335
0.119144
0.125666
0.133345
0.142892
0.155364
0.172124
0.194537
0.223322
0.257868
0.296851
0.343413
0.170232
0.092273
0.0807451
0.0787162
0.0798528
0.0825255
0.0861141
0.0903214
0.094982
0.100002
0.105343
0.111028
0.117153
0.123911
0.131633
0.140842
0.152309
0.16703
0.186069
0.210212
0.239603
0.274142
0.316112
0.166563
0.0893699
0.0778384
0.0756822
0.0766658
0.0791992
0.0826872
0.0868522
0.0915446
0.0966801
0.102221
0.108175
0.114607
0.121656
0.129565
0.138719
0.149675
0.163159
0.179983
0.200865
0.226262
0.256622
0.293655
0.162132
0.0863868
0.0749751
0.0727309
0.0735614
0.0759281
0.0792665
0.083323
0.0879677
0.0931316
0.0987845
0.104932
0.111623
0.118961
0.127126
0.136402
0.147193
0.160026
0.175508
0.194241
0.216748
0.243636
0.27618
0.157216
0.0834347
0.0722428
0.0699448
0.0706265
0.0728097
0.0759642
0.079862
0.0843949
0.0895115
0.0951947
0.101456
0.108337
0.115924
0.124354
0.13384
0.144678
0.15725
0.172006
0.189416
0.209953
0.234192
0.263044
0.152088
0.0806197
0.0697192
0.0673931
0.0679306
0.0699201
0.0728672
0.0765697
0.0809412
0.085949
0.0915913
0.0978895
0.104889
0.112665
0.121332
0.131053
0.14205
0.154604
0.169042
0.185716
0.205004
0.227365
0.253403
0.147018
0.0780424
0.067472
0.0651316
0.0655273
0.0673162
0.0700401
0.0735218
0.0776956
0.0825471
0.0880906
0.0943603
0.101409
0.109311
0.118168
0.128113
0.13932
0.151996
0.166379
0.182726
0.201311
0.22246
0.246524
0.142255
0.0757898
0.0655561
0.0632032
0.0634553
0.0650381
0.0675282
0.0707721
0.0747228
0.0793833
0.0847836
0.0909717
0.0980108
0.10598
0.114977
0.125119
0.136548
0.149424
0.163922
0.180223
0.198515
0.219004
0.241848
0.137997
0.0739288
0.0640112
0.0616364
0.0617389
0.0631101
0.0653593
0.0683542
0.0720653
0.0765108
0.0817356
0.0878015
0.0947839
0.102771
0.111862
0.122169
0.133816
0.146935
0.161657
0.178109
0.196413
0.216684
0.238942
0.134393
0.0725035
0.0628608
0.0604462
0.0603893
0.0615426
0.0635454
0.0662846
0.0697456
0.0739603
0.0789869
0.0849008
0.0917904
0.0997545
0.108901
0.119343
0.131199
0.144582
0.159599
0.176342
0.194882
0.215271
0.237444
0.131537
0.0715358
0.062113
0.0596345
0.0594053
0.0603335
0.0620854
0.0645645
0.067769
0.0717426
0.0765553
0.0822952
0.0890638
0.096973
0.106141
0.116691
0.128739
0.142397
0.157756
0.174884
0.193823
0.214577
0.237032
0.129478
0.071029
0.0617619
0.0591916
0.0587753
0.0594705
0.0609671
0.063183
0.0661269
0.0698523
0.0744394
0.0799879
0.0866123
0.0944381
0.103598
0.114225
0.126448
0.140378
0.156103
0.17368
0.193126
0.214418
0.237406
0.128226
0.0709699
0.0617898
0.0590981
0.0584791
0.0589329
0.0601699
0.0621198
0.0647999
0.0682713
0.0726228
0.0779641
0.084422
0.0921364
0.101255
0.111928
0.124295
0.13848
0.154574
0.17263
0.192653
0.214594
0.23828
0.127764
0.0713333
0.0621701
0.0593272
0.0584901
0.0586944
0.0596677
0.061349
0.0637621
0.0669736
0.0710789
0.0761965
0.082464
0.0900351
0.0990743
0.109749
0.122219
0.136622
0.153063
0.171597
0.192225
0.214879
0.239365
0.128054
0.0720856
0.0628705
0.0598479
0.0587783
0.058726
0.0594318
0.060842
0.0629844
0.0659293
0.0697767
0.0746513
0.0807003
0.0880901
0.0970017
0.107622
0.120131
0.134691
0.151425
0.170402
0.191624
0.215013
0.240353
0.12905
0.0731902
0.0638564
0.0606278
0.0593134
0.0589985
0.0594342
0.0605713
0.0624392
0.0651098
0.0686852
0.0732944
0.0790916
0.0862545
0.094979
0.105471
0.117936
0.132561
0.149496
0.168834
0.190595
0.214696
0.240906
0.130698
0.0746116
0.0650959
0.0616372
0.0600676
0.0594863
0.0596507
0.0605133
0.0621032
0.0644911
0.0677791
0.0720979
0.0776066
0.0844908
0.0929592
0.103236
0.115551
0.130119
0.147124
0.166693
0.188872
0.213599
0.240644
0.132959
0.0763231
0.0665644
0.0628534
0.0610198
0.0601699
0.0600635
0.0606518
0.0619611
0.0640585
0.0670435
0.0710453
0.076224
0.0827699
0.0909014
0.100859
0.112894
0.127254
0.144159
0.163778
0.1862
0.211399
0.239168
0.135834
0.0783161
0.0682514
0.0642651
0.0621594
0.0610397
0.0606644
0.0609805
0.0620084
0.0638091
0.066476
0.0701338
0.0749397
0.0810846
0.0887921
0.0983141
0.109922
0.123893
0.140486
0.159923
0.182347
0.207789
0.23609
0.139391
0.0806123
0.0701677
0.065878
0.0634896
0.0620987
0.0614577
0.0615058
0.062254
0.0637544
0.0660912
0.0693809
0.0737737
0.0794561
0.086651
0.0956162
0.106637
0.120016
0.136054
0.155024
0.17714
0.202508
0.231048
0.14381
0.0832794
0.0723562
0.0677222
0.065033
0.0633664
0.0624627
0.0622487
0.0627226
0.0639235
0.0659231
0.0688259
0.072771
0.0779351
0.0845345
0.0928245
0.103097
0.115673
0.130887
0.149065
0.170497
0.195382
0.223749
0.149419
0.0864514
0.0749044
0.0698592
0.0668362
0.0648818
0.0637167
0.0632483
0.0634571
0.0643648
0.0660266
0.0685314
0.0720033
0.0766042
0.0825366
0.0900457
0.0994196
0.110985
0.125101
0.142139
0.162461
0.186369
0.214027
0.156771
0.0903648
0.0779636
0.0723912
0.0689734
0.0667061
0.0652767
0.0645636
0.0645213
0.0651484
0.0664799
0.0685855
0.0715704
0.0755773
0.0807892
0.0874324
0.0957795
0.10615
0.11891
0.134461
0.153224
0.175601
0.201901
0.166784
0.0954196
0.0817746
0.0754691
0.0715479
0.0689225
0.0672212
0.0662759
0.0660027
0.0663699
0.0673876
0.0691033
0.0716008
0.0750001
0.0794596
0.0851793
0.0924057
0.101436
0.112622
0.126373
0.143143
0.163415
0.187636
0.181075
0.102291
0.0866931
0.0792849
0.0746793
0.0716282
0.0696485
0.0684915
0.0680174
0.0681551
0.0688857
0.0702323
0.0722555
0.0750508
0.078749
0.0835186
0.0895706
0.0971658
0.106623
0.118326
0.132733
0.150365
0.171774
0.202555
0.112098
0.0931766
0.0840177
0.0784664
0.0749198
0.0726743
0.0713468
0.0707181
0.0706694
0.07115
0.0721588
0.0737334
0.0759444
0.0788941
0.0827164
0.0875817
0.0937033
0.101349
0.110852
0.12263
0.137192
0.155137
0.236615
0.126501
0.101575
0.0896689
0.0829044
0.0788654
0.0764327
0.0750196
0.0743089
0.0741325
0.0744112
0.0751225
0.0762838
0.0779429
0.080174
0.0830765
0.0867777
0.0914385
0.0972635
0.104516
0.113535
0.124764
0.138763
0.296633
0.147657
0.111462
0.0956909
0.0877682
0.0834948
0.0810995
0.0797596
0.0790748
0.0788461
0.078979
0.0794388
0.0802277
0.0813742
0.0829268
0.0849523
0.0875361
0.0907867
0.0948423
0.0998837
0.106152
0.113974
0.123793
0.41834
0.176212
0.120448
0.100666
0.0926224
0.0888858
0.0869729
0.085953
0.0854343
0.0852383
0.085283
0.0855354
0.0859908
0.0866628
0.0875775
0.0887723
0.0902945
0.0922036
0.0945756
0.0975101
0.101143
0.105662
0.111338
0.646782
0.20614
0.124909
0.10293
0.097287
0.0954556
0.0946434
0.0942297
0.0940183
0.0939307
0.0939319
0.0940076
0.0941545
0.0943759
0.0946798
0.0950778
0.0955843
0.0962173
0.096999
0.0979585
0.0991357
0.100587
0.102392
0.638529
0.75868
1.06215
1.62442
0.404938
0.582304
0.903982
1.42415
0.304903
0.39433
0.535577
0.747579
0.302003
0.37251
0.458994
0.543218
0.360658
0.443407
0.493272
0.494947
0.412878
0.474278
0.460022
0.416772
0.461016
0.471845
0.420423
0.365726
0.450735
0.452055
0.412955
0.37258
0.49407
0.525187
0.490346
0.425401
0.516555
0.592434
0.620235
0.533277
0.491514
0.578365
0.678476
0.71136
0.443824
0.512663
0.613137
0.736527
0.398076
0.448085
0.517867
0.614465
0.360205
0.398153
0.446646
0.509493
0.330101
0.360282
0.396374
0.439294
0.306904
0.331801
0.360502
0.39302
0.289411
0.310455
0.33425
0.360688
0.276463
0.294589
0.314793
0.337025
0.267183
0.283151
0.300699
0.319834
0.260918
0.27541
0.291113
0.308063
0.25712
0.270725
0.285285
0.300847
0.255283
0.268468
0.282443
0.297258
0.254933
0.268033
0.281822
0.296351
0.25564
0.268873
0.282734
0.297268
0.257016
0.270514
0.284596
0.299305
0.258705
0.272541
0.286928
0.301899
0.260361
0.274575
0.289312
0.304596
0.261618
0.276235
0.291354
0.306987
0.262076
0.27711
0.292636
0.308653
0.261294
0.276739
0.292688
0.309122
0.258822
0.27463
0.290981
0.307845
0.254217
0.270291
0.28697
0.304221
0.247083
0.263256
0.280121
0.297642
0.237133
0.253159
0.269981
0.287569
0.224262
0.239809
0.256261
0.273604
0.208626
0.223283
0.238945
0.255618
0.190704
0.204007
0.218383
0.233869
0.171325
0.182795
0.195348
0.209058
0.151625
0.160824
0.171029
0.182349
0.132939
0.139539
0.146955
0.155313
0.116655
0.12051
0.124881
0.129867
0.104072
0.105285
0.106658
0.108225
1.4079
2.38876
1.85242
1.39187
1.12183
1.00951
1.32238
1.9388
2.24788
2.62635
3.737
2.30325
1.42289
1.05778
0.815137
0.6217
0.57331
0.561697
0.534606
1.97291
1.92296
1.45895
1.20047
1.08381
1.04964
1.25274
1.74493
1.79586
2.06848
4.14348
3.12098
1.81601
1.21233
0.895062
0.629742
0.57882
0.517975
0.466802
1.06483
1.05608
0.954316
0.989007
1.05025
1.62677
1.49825
1.66987
1.79814
2.28713
5.61047
4.28729
2.04559
1.33262
0.959838
0.726778
0.638868
0.48209
0.392956
0.637239
0.659208
0.711797
0.895302
3.15553
3.88951
2.98902
2.35737
2.9338
3.17256
6.15009
4.77634
1.97142
1.37515
1.03006
0.932286
0.797945
0.465331
0.332712
0.475948
0.437311
0.470661
1.41458
4.14068
4.98145
4.32159
3.82183
3.96504
4.04577
6.92838
3.54137
1.74292
1.41401
1.1344
1.14292
0.940224
0.470874
0.309934
0.373481
0.349337
0.37346
1.25089
5.04354
5.79208
5.24173
5.2038
4.5898
5.7201
6.21907
2.20962
1.58924
1.50632
1.31451
1.35649
1.10161
0.537653
0.331328
0.341377
0.344296
0.380605
0.993382
5.40656
6.03502
5.36666
5.20774
5.30714
6.13893
2.98592
1.48603
1.53008
1.66575
1.60982
1.53939
1.13998
0.541763
0.451864
0.357508
0.368274
0.399957
0.563998
4.30983
6.50542
5.75844
5.70866
5.84399
2.70541
1.32133
1.21482
1.50059
1.86046
2.07473
1.68414
1.07714
0.489478
0.497897
0.392061
0.396192
0.414849
0.4652
1.33357
6.32704
6.13517
6.30876
5.66333
1.04932
1.02361
1.09987
1.43307
1.95131
2.23072
2.12826
1.05917
0.449825
0.52019
0.442391
0.435818
0.450899
0.47997
0.606432
4.16127
5.69578
5.57117
2.6063
0.963221
0.955419
1.02861
1.33571
1.96626
2.36022
3.55552
1.09763
0.431434
0.555892
0.53163
0.483213
0.495723
0.524487
0.560271
0.78852
3.0635
1.58373
0.901951
0.901245
0.906279
0.985001
1.26822
1.94136
2.61774
5.18548
0.951186
0.410036
0.595233
0.878292
0.560418
0.556906
0.584171
0.62702
0.703572
0.826868
0.918745
0.881854
0.864387
0.86215
0.96366
1.38483
2.13101
2.91717
6.20121
0.821746
0.385526
0.640144
0.822269
1.00669
0.610768
0.648154
0.687815
0.733032
0.787838
0.838785
0.856485
0.842641
0.858343
1.04694
1.85773
2.35195
3.53192
6.69212
0.892026
0.389187
0.657209
0.64749
0.912309
1.11716
0.709373
0.720665
0.742646
0.780227
0.819428
0.85293
0.851069
1.08256
2.75863
3.20136
3.25056
5.62139
7.20531
0.950552
0.404539
0.675258
0.525534
0.691897
0.911307
1.05301
0.762503
0.752226
0.794385
0.826259
0.872552
1.42618
2.24708
2.92712
3.4244
4.28447
6.8432
5.69306
0.917186
0.425278
0.693613
0.453561
0.550421
0.674097
0.789503
0.808004
0.768794
0.802493
0.93619
1.203
1.91111
2.59676
2.92458
3.31848
4.3071
6.18877
4.24006
0.869734
0.442174
0.702893
0.408374
0.472928
0.542598
0.603907
0.643396
0.710428
0.855913
1.07721
1.36875
1.8941
2.47827
2.71314
3.01424
3.87291
5.14002
3.52279
0.89567
0.456188
0.699063
0.376792
0.427091
0.475883
0.51802
0.553596
0.612958
0.737264
0.951489
1.26832
1.72228
2.18118
2.39293
2.67759
3.42461
4.3268
3.39013
1.08156
0.477217
0.677647
0.353949
0.39673
0.437334
0.474001
0.510312
0.565546
0.671054
0.85457
1.12909
1.48869
1.83982
2.05657
2.36572
3.01888
3.78785
3.47326
1.56714
0.547005
0.646294
0.338163
0.376364
0.413238
0.448308
0.485597
0.53802
0.627133
0.774757
0.992139
1.26621
1.53695
1.76079
2.0962
2.69819
3.42686
3.51928
2.29669
0.727859
0.616348
0.328354
0.363825
0.398978
0.433819
0.471797
0.521794
0.59816
0.716149
0.883663
1.09056
1.30544
1.52858
1.87654
2.45258
3.17368
3.50327
2.78973
0.959802
0.59164
0.323332
0.357475
0.392121
0.427461
0.466169
0.514324
0.581313
0.677142
0.807013
0.965501
1.14155
1.35736
1.70551
2.26691
2.99018
3.45376
3.02015
1.08467
0.581971
0.321831
0.355647
0.390562
0.426783
0.466253
0.513031
0.573107
0.652791
0.755646
0.880544
1.02951
1.23492
1.5763
2.12644
2.85047
3.38402
3.07164
1.15725
0.587588
0.322687
0.356782
0.39235
0.429523
0.469603
0.515187
0.569966
0.637843
0.721609
0.823494
0.953365
1.14767
1.47793
2.01276
2.7246
3.27753
2.97443
1.15467
0.606528
0.324955
0.359615
0.39592
0.433866
0.474232
0.518571
0.569064
0.628163
0.698432
0.784466
0.900358
1.08301
1.39653
1.90245
2.57368
3.08688
2.70944
1.0138
0.670974
0.327927
0.363249
0.400203
0.438628
0.478887
0.521818
0.568662
0.621071
0.68166
0.756468
0.861261
1.03064
1.31922
1.77546
2.36715
2.79293
2.20146
0.827572
0.80102
0.33108
0.367092
0.404578
0.443208
0.483027
0.524406
0.568043
0.615212
0.668661
0.735098
0.83013
0.984
1.23969
1.6286
2.11274
2.46332
1.63988
0.771387
0.808522
0.333989
0.370742
0.408713
0.447399
0.486603
0.526403
0.567222
0.610199
0.658192
0.717979
0.803859
0.940706
1.1598
1.47726
1.85474
2.16707
1.51377
0.75837
0.746147
0.336248
0.373857
0.412389
0.451162
0.489786
0.528157
0.566584
0.606194
0.649885
0.704119
0.781346
0.9012
1.08547
1.34121
1.63933
1.92214
1.6792
0.795917
0.663437
0.337391
0.376042
0.415345
0.454425
0.492719
0.530004
0.566552
0.603521
0.64378
0.693259
0.762483
0.866672
1.02111
1.22971
1.47647
1.7376
1.76906
1.00044
0.599372
0.336856
0.376775
0.417158
0.456922
0.495328
0.53205
0.567337
0.602376
0.639937
0.685338
0.747337
0.837721
0.967615
1.14046
1.34977
1.5878
1.72861
1.18224
0.571562
0.33397
0.375365
0.41718
0.458105
0.497205
0.534026
0.568772
0.602611
0.638163
0.680114
0.735692
0.814083
0.923648
1.06769
1.24401
1.44982
1.62409
1.25911
0.569466
0.327984
0.370972
0.414527
0.457108
0.497547
0.535215
0.570211
0.603617
0.63784
0.676939
0.726845
0.794755
0.887027
1.00635
1.15134
1.31981
1.48736
1.29305
0.596991
0.318219
0.362667
0.408125
0.452774
0.495173
0.53445
0.570518
0.604281
0.637849
0.674659
0.719547
0.778151
0.855266
0.952582
1.06795
1.19901
1.33853
1.32965
0.678392
0.304072
0.349486
0.396807
0.443758
0.488611
0.530187
0.568117
0.60303
0.636633
0.671723
0.712203
0.762454
0.825997
0.903542
0.992042
1.08989
1.20537
1.3254
1.32806
0.285211
0.330773
0.3795
0.428698
0.47628
0.520671
0.561124
0.597909
0.632207
0.666217
0.703169
0.746237
0.797807
0.857846
0.922794
0.994118
1.09068
1.23354
1.18463
0.261697
0.306194
0.355382
0.406458
0.456786
0.504284
0.547712
0.586872
0.622549
0.656353
0.690722
0.728104
0.770035
0.815718
0.860862
0.909253
0.982148
1.06485
0.797188
0.234067
0.275852
0.324019
0.376339
0.429285
0.480062
0.526717
0.568561
0.606003
0.640276
0.673143
0.706597
0.741781
0.777418
0.808002
0.83804
0.884384
0.919462
0.715172
0.20337
0.240374
0.285622
0.338012
0.393616
0.448284
0.49844
0.543035
0.582275
0.617165
0.649189
0.67998
0.710645
0.740298
0.763669
0.781113
0.807083
0.818412
0.737298
0.171137
0.20073
0.239997
0.290189
0.349163
0.410786
0.465541
0.512845
0.553554
0.58874
0.619735
0.648107
0.675236
0.700897
0.720658
0.734793
0.774304
0.808521
0.831928
0.139464
0.158504
0.186464
0.228295
0.289404
0.370404
0.433432
0.483672
0.52532
0.560252
0.589738
0.615183
0.638022
0.658004
0.66761
0.660219
0.752018
0.887661
1.09028
0.111249
0.117409
0.127189
0.145099
0.187276
0.33228
0.410017
0.463358
0.505501
0.540067
0.568386
0.591428
0.609499
0.618238
0.589969
0.38478
0.412658
0.451301
1.70037
)
;

boundaryField
{
    leftWall
    {
        lowReCorrection 0;
        blending        stepwise;
        n               2;
        type            epsilonWallFunction;
        value           nonuniform List<scalar> 
50
(
0.0182186
0.0227588
0.0284574
0.0304809
0.0297247
0.0274377
0.0250742
0.0232057
0.0207061
0.0210622
0.0599001
0.115113
0.137219
0.151305
0.159637
0.165567
0.169764
0.172597
0.174104
0.174195
0.172855
0.170232
0.166563
0.162132
0.157216
0.152088
0.147018
0.142255
0.137997
0.134393
0.131537
0.129478
0.128226
0.127764
0.128054
0.12905
0.130698
0.132959
0.135834
0.139391
0.14381
0.149419
0.156771
0.166784
0.181075
0.202555
0.236615
0.296633
0.41834
0.646782
)
;
    }
    rightWall
    {
        lowReCorrection 0;
        blending        stepwise;
        n               2;
        type            epsilonWallFunction;
        value           nonuniform List<scalar> 
50
(
0.268492
0.271083
0.399647
0.513874
0.576268
0.595896
0.590678
0.566499
0.534606
0.466802
0.392956
0.332712
0.309934
0.331328
0.451864
0.497897
0.52019
0.555892
0.595233
0.640144
0.657209
0.675258
0.693613
0.702893
0.699063
0.677647
0.646294
0.616348
0.59164
0.581971
0.587588
0.606528
0.670974
0.80102
0.808522
0.746147
0.663437
0.599372
0.571562
0.569466
0.596991
0.678392
1.32806
1.18463
0.797188
0.715172
0.737298
0.831928
1.09028
1.70037
)
;
    }
    lowerWall
    {
        lowReCorrection 0;
        blending        stepwise;
        n               2;
        type            epsilonWallFunction;
        value           nonuniform List<scalar> 
62
(
0.0182186
0.0452464
0.0694287
0.0896464
0.106049
0.120104
0.133561
0.147151
0.161
0.174911
0.188411
0.200839
0.211522
0.219623
0.223086
0.219948
0.209
0.191105
0.170115
0.149063
0.131244
0.108928
0.0680562
0.0680562
0.075438
0.107475
0.143143
0.187924
0.253005
0.35631
0.513751
0.638529
0.75868
1.06215
1.62442
1.19046
1.15821
1.37651
1.41688
1.39266
1.32053
1.20043
1.1225
1.19046
1.28148
1.91649
2.37527
2.64525
2.69818
2.55203
2.58864
2.79794
3.11826
3.53776
3.98584
4.35973
4.44481
4.01248
3.17433
2.24992
1.20526
0.268492
)
;
    }
    atmosphere
    {
        type            inletOutlet;
        inletValue      uniform 0.1;
        value           nonuniform List<scalar> 
46
(
0.646782
0.20614
0.124909
0.10293
0.1
0.1
0.1
0.1
0.1
0.1
0.1
0.1
0.1
0.1
0.1
0.1
0.1
0.1
0.1
0.1
0.1
0.1
0.1
0.1
0.1
0.1
0.1
0.1
0.1
0.1
0.1
0.1
0.33228
0.410017
0.463358
0.505501
0.540067
0.568386
0.591428
0.609499
0.618238
0.589969
0.1
0.1
0.1
1.70037
)
;
    }
    defaultFaces
    {
        type            empty;
    }
}


// ************************************************************************* //
