/*--------------------------------*- C++ -*----------------------------------*\
| =========                 |                                                 |
| \\      /  F ield         | OpenFOAM: The Open Source CFD Toolbox           |
|  \\    /   O peration     | Version:  v2012                                 |
|   \\  /    A nd           | Website:  www.openfoam.com                      |
|    \\/     M anipulation  |                                                 |
\*---------------------------------------------------------------------------*/
FoamFile
{
    version     2.0;
    format      ascii;
    class       volScalarField;
    location    "0.75";
    object      k;
}
// * * * * * * * * * * * * * * * * * * * * * * * * * * * * * * * * * * * * * //

dimensions      [0 2 -2 0 0 0 0];


internalField   nonuniform List<scalar> 
2268
(
0.00323058
0.00482522
0.00641228
0.00759996
0.00850289
0.00924642
0.00993356
0.0106041
0.0112657
0.0119101
0.0125177
0.0130625
0.0135205
0.0138607
0.0140017
0.013867
0.0134048
0.0126364
0.0117143
0.0107628
0.00991842
0.00872438
0.0062978
0.00504139
0.00916715
0.012609
0.0152971
0.0173827
0.0191235
0.0206941
0.0221829
0.023623
0.0250109
0.026317
0.0274939
0.0284792
0.0292066
0.0295926
0.0295228
0.028917
0.0277869
0.0263015
0.0247321
0.022776
0.0190058
0.0111488
0.0058597
0.0112398
0.015337
0.0186903
0.0214672
0.0238441
0.0259788
0.0279679
0.0298542
0.0316399
0.0332986
0.0347854
0.0360409
0.0369924
0.0375699
0.0376756
0.0372504
0.0363208
0.0350098
0.0334052
0.031034
0.0262163
0.0141364
0.00614637
0.0121916
0.0167006
0.0205965
0.0239644
0.0268799
0.0294781
0.0318652
0.0340962
0.0361815
0.0381011
0.0398172
0.0412785
0.0424221
0.0431904
0.0435094
0.0433409
0.0427189
0.0417292
0.0403422
0.037951
0.0325009
0.0171334
0.00605739
0.0124317
0.0172932
0.0217174
0.0256497
0.0290605
0.0320713
0.034804
0.0373296
0.0396676
0.0418061
0.0437164
0.0453581
0.0466813
0.0476412
0.0481835
0.0482853
0.047983
0.0473398
0.0462682
0.0440387
0.0381607
0.0205654
0.00574707
0.0121545
0.0173779
0.0223607
0.0268437
0.0307117
0.0340921
0.0371299
0.0399128
0.0424701
0.0447985
0.04688
0.048686
0.0501796
0.0513272
0.052088
0.0524462
0.0524366
0.0521056
0.0513365
0.0493161
0.043223
0.0250978
0.00539856
0.011498
0.0171187
0.0227059
0.0277142
0.031993
0.0357
0.0390059
0.0420136
0.0447616
0.0472561
0.0494904
0.0514475
0.053102
0.0544297
0.0553956
0.0559836
0.0562226
0.0561439
0.0556122
0.0537996
0.0479008
0.0315609
0.00511491
0.0106542
0.0166692
0.0228867
0.0283617
0.0329876
0.0369738
0.0405117
0.0437134
0.0466276
0.0492692
0.0516417
0.0537379
0.0555427
0.0570408
0.0581945
0.0589818
0.0594234
0.0595351
0.0591769
0.0576474
0.0526861
0.040344
0.0424244
0.0451036
0.0589132
0.0678785
0.0727587
0.0737584
0.0709567
0.0716721
0.0757019
0.0816499
0.0890695
0.0964567
0.102041
0.102596
0.0949384
0.0808086
0.0643751
0.0424861
0.0198101
0.0746575
0.100361
0.106045
0.124607
0.146207
0.148118
0.136114
0.129016
0.130517
0.139215
0.151812
0.165873
0.178285
0.182249
0.170622
0.148289
0.120668
0.0836529
0.0278175
0.0841077
0.116943
0.134294
0.18177
0.221462
0.230706
0.202411
0.175706
0.164417
0.168207
0.180317
0.195622
0.208899
0.211719
0.195413
0.167722
0.136977
0.0969401
0.0358883
0.0860344
0.121583
0.156592
0.243255
0.317461
0.34378
0.292507
0.228152
0.191936
0.185715
0.195654
0.211002
0.223483
0.223856
0.203223
0.171876
0.140749
0.103036
0.0425271
0.0851882
0.119359
0.184777
0.296852
0.332608
0.382393
0.388294
0.301335
0.224352
0.199302
0.205349
0.220131
0.230839
0.227781
0.202969
0.169234
0.138745
0.104624
0.0458493
0.0822986
0.115192
0.183767
0.221236
0.221306
0.268364
0.352482
0.352571
0.279535
0.217721
0.215768
0.228245
0.23523
0.227591
0.199018
0.163489
0.13419
0.10327
0.0467638
0.0774698
0.113536
0.158844
0.162161
0.161873
0.186394
0.246102
0.297174
0.310409
0.289054
0.243647
0.240759
0.238832
0.225961
0.194399
0.156929
0.128588
0.100245
0.0463208
0.073814
0.11739
0.154107
0.155451
0.149182
0.152513
0.17994
0.219753
0.244285
0.288112
0.288456
0.266275
0.245502
0.225579
0.191237
0.150767
0.122934
0.0964062
0.0449508
0.00473274
0.00955554
0.0160982
0.0232512
0.0292625
0.0342582
0.0385508
0.0423554
0.045805
0.0489465
0.0517979
0.0543709
0.0566672
0.0586814
0.0604011
0.0617905
0.0628145
0.0634728
0.0637474
0.0635078
0.0623637
0.059055
0.0512453
0.00479383
0.00990629
0.016854
0.0241093
0.0301229
0.0351682
0.0396267
0.0437085
0.0474143
0.0507641
0.0537952
0.0565363
0.0590157
0.0612527
0.0632237
0.0648763
0.0661725
0.0671138
0.0677071
0.0680288
0.0684424
0.0697625
0.073753
0.00912761
0.0138813
0.0184279
0.0249419
0.0306881
0.0355717
0.0399582
0.0441735
0.0480445
0.0514212
0.0545432
0.0574474
0.0601618
0.0626462
0.0647791
0.0665445
0.0680233
0.0692154
0.0701032
0.0708963
0.0722372
0.0753268
0.0821432
0.01449
0.026087
0.0312812
0.0360381
0.0413156
0.0469513
0.0523934
0.0551701
0.0522722
0.0526049
0.0550726
0.0577469
0.0603398
0.0627635
0.0648615
0.0666731
0.0684643
0.0700065
0.0711747
0.0724035
0.0747344
0.0798968
0.0898416
0.0165118
0.0331219
0.0405394
0.0456179
0.0501904
0.0550354
0.0601445
0.0643478
0.0669165
0.0696331
0.0728048
0.0759791
0.0787634
0.0808662
0.0818923
0.080385
0.0731659
0.0710544
0.0718202
0.0729203
0.07535
0.0833968
0.0993315
0.0177131
0.0371843
0.0464083
0.0524601
0.0572824
0.0617994
0.0662831
0.0703534
0.0737274
0.0771214
0.0810516
0.0853
0.0895007
0.0932051
0.0957549
0.0969129
0.0982563
0.10294
0.109017
0.115342
0.120848
0.120539
0.110603
0.0184101
0.0395593
0.0501322
0.0572322
0.0627178
0.0674461
0.071805
0.0758057
0.0794072
0.0829505
0.0868458
0.0911465
0.0956661
0.100156
0.104441
0.108929
0.11545
0.1254
0.136475
0.145846
0.151625
0.152819
0.150481
0.0188879
0.0409966
0.0524705
0.0604138
0.0666028
0.0718002
0.0763996
0.0805563
0.0843456
0.0879773
0.0917479
0.0958373
0.100275
0.105042
0.110268
0.11665
0.125578
0.137912
0.152111
0.16507
0.172997
0.172462
0.163869
0.0192217
0.0419231
0.0539285
0.0624348
0.069185
0.0748691
0.0798454
0.0843
0.0883462
0.0921383
0.0958946
0.0998218
0.104074
0.108805
0.114307
0.121275
0.130856
0.143664
0.158776
0.173453
0.183402
0.184459
0.178884
0.019447
0.0425183
0.0547967
0.0636334
0.0707668
0.0768438
0.0821867
0.0869738
0.0913194
0.0953447
0.0992127
0.103112
0.107238
0.111821
0.117215
0.124027
0.133141
0.145195
0.159633
0.1744
0.185835
0.190219
0.190056
0.0195705
0.0428373
0.0552155
0.0642156
0.0715808
0.0779345
0.0835742
0.0886633
0.0933064
0.0976003
0.101667
0.105663
0.109773
0.114239
0.119405
0.125779
0.13403
0.144718
0.157737
0.171651
0.183808
0.191348
0.195796
0.0195872
0.0428951
0.0552585
0.0643087
0.0717916
0.0783185
0.0841726
0.0895064
0.0944144
0.0989762
0.103285
0.107461
0.111663
0.116106
0.121088
0.127026
0.13444
0.143795
0.155157
0.167768
0.179908
0.18956
0.197243
0.019496
0.0427074
0.0549807
0.0640055
0.0715244
0.0781417
0.0841341
0.0896482
0.0947729
0.0995766
0.104132
0.108532
0.112904
0.117424
0.122336
0.127973
0.13474
0.143022
0.152972
0.164236
0.175805
0.186419
0.196131
0.0193065
0.0423028
0.0544363
0.0633858
0.0708828
0.077527
0.0835926
0.0892255
0.0945127
0.0995171
0.104299
0.108932
0.113516
0.11819
0.123147
0.128646
0.135002
0.142527
0.1514
0.161501
0.172297
0.183072
0.193756
0.0190352
0.0417214
0.0536825
0.0625235
0.069958
0.0765807
0.0826662
0.0883622
0.0937575
0.0989141
0.103886
0.108735
0.11354
0.11841
0.123496
0.128995
0.13515
0.142206
0.150337
0.159542
0.169577
0.180071
0.190947
0.0187019
0.0410096
0.0527775
0.0614887
0.0688318
0.0753965
0.0814585
0.0871692
0.0926214
0.0978794
0.102996
0.108026
0.113035
0.11811
0.123367
0.128958
0.135066
0.141879
0.149548
0.158124
0.167513
0.177547
0.188168
0.0183267
0.0402158
0.0517789
0.0603467
0.0675785
0.0740576
0.0800612
0.0857453
0.0912079
0.0965178
0.10173
0.106895
0.112073
0.117335
0.122772
0.1285
0.134656
0.141383
0.148799
0.156966
0.165861
0.175414
0.185578
0.0179297
0.0393861
0.0507403
0.0591576
0.0662645
0.0726374
0.0785549
0.0841777
0.0896099
0.0949255
0.100183
0.105436
0.110738
0.116151
0.121749
0.127624
0.133877
0.140612
0.147918
0.155845
0.164395
0.173531
0.183198
0.0175315
0.0385614
0.0497102
0.0579749
0.0649481
0.0711995
0.0770091
0.0825422
0.0879089
0.0931894
0.0984472
0.103738
0.109115
0.114635
0.120362
0.126368
0.13273
0.139523
0.14681
0.154623
0.162959
0.171786
0.181025
0.0171516
0.0377781
0.0487312
0.0568447
0.0636794
0.0697984
0.0754831
0.0809035
0.0861756
0.0913855
0.0966023
0.101885
0.10729
0.112871
0.118686
0.124794
0.131256
0.138128
0.145449
0.153236
0.161473
0.170115
0.179058
0.016807
0.0370671
0.0478388
0.0558057
0.0624996
0.0684785
0.0740255
0.0793151
0.0844688
0.0895785
0.0947191
0.0999544
0.105343
0.11094
0.1168
0.122976
0.129519
0.13647
0.143855
0.151676
0.159907
0.168487
0.177293
0.0165108
0.0364538
0.0470615
0.0548883
0.0614414
0.0672751
0.0726749
0.0778195
0.0828357
0.0878211
0.0928559
0.0980089
0.103342
0.108914
0.114779
0.120988
0.127586
0.134606
0.142068
0.149964
0.158258
0.166883
0.175701
0.0162724
0.0359569
0.0464204
0.0541152
0.0605288
0.0662143
0.0714598
0.0764487
0.0813125
0.0861541
0.0910588
0.0961006
0.101346
0.106857
0.11269
0.118896
0.12552
0.132594
0.140132
0.148124
0.156531
0.165281
0.174233
0.0160974
0.0355881
0.0459292
0.0535009
0.0597779
0.0653136
0.0704
0.0752249
0.0799246
0.0846069
0.0893619
0.0942683
0.0993975
0.104815
0.110582
0.116754
0.123375
0.13048
0.138084
0.146178
0.154725
0.163651
0.17282
0.0159879
0.0353528
0.0455945
0.0530534
0.0591975
0.0645832
0.0695072
0.074162
0.0786886
0.0831991
0.0877879
0.0925385
0.0975268
0.102823
0.108494
0.114597
0.121185
0.128294
0.135945
0.144133
0.152826
0.161954
0.171385
0.0159435
0.0352508
0.0454172
0.0527744
0.0587906
0.0640273
0.068787
0.0732672
0.0776134
0.0819416
0.0863506
0.0909276
0.0957531
0.100902
0.106446
0.112449
0.118969
0.12605
0.133719
0.14198
0.150806
0.160135
0.169843
0.0159615
0.035278
0.0453936
0.0526614
0.0585558
0.0636458
0.0682405
0.0725429
0.0767027
0.0808399
0.0850567
0.0894441
0.0940863
0.099063
0.10445
0.110319
0.116733
0.123747
0.131395
0.139693
0.148624
0.158134
0.168106
0.0160378
0.0354275
0.0455177
0.0527097
0.0584898
0.0634368
0.067867
0.0719892
0.0759576
0.0798959
0.0839091
0.0880914
0.0925302
0.0973095
0.10251
0.108208
0.114475
0.121374
0.128953
0.137237
0.146226
0.155878
0.166082
0.016168
0.0356922
0.0457835
0.0529148
0.0585898
0.0633987
0.0676661
0.0716066
0.0753792
0.0791109
0.0829096
0.0868722
0.0910889
0.0956464
0.100629
0.106119
0.112196
0.11893
0.126382
0.13459
0.14357
0.153293
0.163673
0.0163483
0.0360676
0.0461883
0.053276
0.0588567
0.0635336
0.0676403
0.0713983
0.0749711
0.0784891
0.082063
0.0857913
0.0897657
0.0940751
0.0988069
0.104048
0.109884
0.116395
0.123653
0.131713
0.140607
0.150326
0.1608
0.0165779
0.0365553
0.0467366
0.0537999
0.0592982
0.0638498
0.0677986
0.0713732
0.0747422
0.0780394
0.0813776
0.0848565
0.0885685
0.0926032
0.0970496
0.101998
0.107538
0.11376
0.120747
0.128573
0.137287
0.146906
0.157381
0.0168617
0.0371681
0.0474449
0.0545044
0.0599327
0.0643655
0.0681584
0.0715481
0.0747087
0.0777776
0.0808695
0.0840844
0.0875147
0.0912491
0.0953762
0.0999871
0.105176
0.111038
0.11767
0.125162
0.133586
0.142985
0.153342
0.0172125
0.0379348
0.048347
0.0554245
0.060794
0.0651122
0.0687488
0.07195
0.0748962
0.0777289
0.080564
0.0835016
0.0866325
0.090043
0.0938195
0.0980515
0.102834
0.108266
0.114455
0.121504
0.129511
0.13855
0.148641
0.0176542
0.0389068
0.0495013
0.0566181
0.0619356
0.066138
0.0696129
0.072618
0.0753416
0.0779288
0.0804969
0.0831449
0.085961
0.0890277
0.0924269
0.0962438
0.10057
0.105507
0.111165
0.117662
0.125116
0.133634
0.143279
0.0182264
0.0401667
0.0509998
0.0581733
0.0634363
0.0675113
0.0708099
0.073605
0.0760933
0.0784239
0.0807146
0.0830623
0.0855514
0.088259
0.0912603
0.0946338
0.0984648
0.10285
0.1079
0.11374
0.120505
0.128331
0.137328
0.018993
0.0418438
0.0529827
0.060219
0.0654062
0.0693238
0.0724167
0.0749777
0.0772123
0.0792725
0.0812749
0.0833133
0.0854666
0.0878049
0.0903954
0.0933069
0.0966154
0.100408
0.10479
0.109885
0.115837
0.122803
0.130937
0.0200612
0.0441403
0.0556604
0.0629364
0.0679895
0.0716888
0.0745261
0.0768159
0.0787713
0.0805442
0.0822476
0.0839695
0.0857817
0.0877461
0.0899202
0.0923619
0.0951346
0.0983132
0.101989
0.106278
0.111319
0.117281
0.124345
0.0216195
0.0473877
0.0593453
0.066568
0.0713637
0.0747387
0.0772431
0.0792104
0.0808544
0.0823211
0.0837152
0.0851158
0.0865854
0.0881764
0.0899356
0.091909
0.0941465
0.0967072
0.0996655
0.103118
0.107191
0.112045
0.117871
0.0239835
0.0521733
0.0644931
0.0714084
0.0757215
0.0786093
0.080677
0.0822593
0.0835568
0.0846993
0.0857765
0.0868543
0.0879837
0.0892061
0.0905574
0.0920716
0.0937848
0.0957396
0.0979908
0.100612
0.103704
0.107403
0.111884
0.0278727
0.0593577
0.0715739
0.0777104
0.0812114
0.0834123
0.08493
0.0860672
0.0869886
0.0877944
0.0885521
0.0893102
0.0901055
0.0909677
0.0919215
0.0929897
0.0941954
0.095566
0.0971369
0.0989572
0.101096
0.103652
0.106762
0.0348766
0.0692635
0.0803157
0.0853132
0.0878363
0.0892046
0.0900946
0.0907521
0.0912849
0.0917532
0.0921962
0.092642
0.0931123
0.0936241
0.0941916
0.0948272
0.0955432
0.0963538
0.0972774
0.0983401
0.09958
0.101053
0.102841
0.0458391
0.0786091
0.0878888
0.0926901
0.0954113
0.0960018
0.0962745
0.0964676
0.0966277
0.0967725
0.0969127
0.0970567
0.0972107
0.0973801
0.0975691
0.0977815
0.0980209
0.098291
0.098597
0.098946
0.0993493
0.0998233
0.100392
0.0477616
0.0535831
0.0667615
0.0869833
0.0842609
0.0972603
0.11869
0.14972
0.0945293
0.106692
0.124646
0.148827
0.105085
0.118385
0.134095
0.14867
0.119364
0.136645
0.147753
0.149309
0.131156
0.145351
0.144395
0.137125
0.149705
0.1497
0.138945
0.12778
0.1576
0.152431
0.141218
0.131225
0.179041
0.176713
0.162484
0.145858
0.197847
0.204124
0.198842
0.17353
0.206155
0.217007
0.227105
0.221396
0.207247
0.217204
0.231364
0.246653
0.205595
0.213774
0.224802
0.239576
0.202974
0.210189
0.218731
0.229131
0.199927
0.206637
0.213935
0.221774
0.196804
0.203163
0.209864
0.216702
0.193765
0.199761
0.206037
0.212411
0.190884
0.196477
0.202312
0.208268
0.188245
0.193448
0.198843
0.20436
0.185926
0.190819
0.195851
0.200981
0.183962
0.188663
0.193459
0.198326
0.182327
0.186959
0.191657
0.196405
0.180945
0.18561
0.190327
0.195085
0.179709
0.184478
0.189298
0.194156
0.178503
0.183418
0.188387
0.193399
0.177211
0.182288
0.187426
0.192614
0.175723
0.180959
0.186266
0.191632
0.173929
0.179312
0.184778
0.190312
0.171721
0.177231
0.182838
0.188525
0.168994
0.174601
0.180325
0.186145
0.165659
0.171319
0.17712
0.183045
0.161624
0.167287
0.173119
0.179101
0.15682
0.162417
0.168216
0.174199
0.151219
0.156666
0.162348
0.168253
0.144862
0.150051
0.155511
0.161233
0.137876
0.142681
0.147788
0.153196
0.13049
0.134777
0.139385
0.144323
0.123036
0.12667
0.130627
0.134928
0.115924
0.118793
0.121958
0.125452
0.109598
0.111627
0.113893
0.116432
0.104476
0.10565
0.106971
0.108465
0.100908
0.101277
0.10169
0.102156
0.0996653
0.188057
0.194486
0.176409
0.158413
0.146488
0.149568
0.164814
0.174945
0.196182
0.289063
0.304464
0.263445
0.229681
0.190818
0.143405
0.11662
0.0916714
0.0431409
0.189658
0.224763
0.208022
0.1906
0.177397
0.162749
0.150653
0.156969
0.153339
0.169067
0.293769
0.372207
0.301503
0.247421
0.197376
0.133361
0.108371
0.0832299
0.0392899
0.184565
0.199783
0.191027
0.189787
0.184688
0.21124
0.176831
0.158623
0.15845
0.188011
0.381732
0.452303
0.32443
0.260162
0.199627
0.139454
0.10623
0.0757448
0.0350587
0.164619
0.169573
0.172252
0.183576
0.294961
0.344225
0.278696
0.207634
0.238706
0.251959
0.4618
0.48596
0.320084
0.262759
0.199525
0.158239
0.122523
0.0697654
0.031679
0.146532
0.138546
0.141404
0.194169
0.348052
0.405319
0.349587
0.297009
0.305388
0.320021
0.533039
0.42092
0.303728
0.260699
0.197769
0.174181
0.136176
0.0650412
0.0307865
0.128346
0.121635
0.121763
0.168184
0.393301
0.442679
0.398366
0.383148
0.350763
0.445242
0.513683
0.332806
0.293412
0.26531
0.208324
0.190313
0.145915
0.0730391
0.0334536
0.122059
0.120873
0.123104
0.155423
0.410886
0.458006
0.419683
0.398748
0.39628
0.474769
0.370703
0.283432
0.290728
0.280884
0.233036
0.201069
0.146978
0.0749573
0.0400443
0.12731
0.128536
0.131648
0.143521
0.345532
0.486399
0.447448
0.432444
0.435659
0.327813
0.26456
0.261393
0.288761
0.304151
0.276943
0.205418
0.143287
0.0696252
0.0424972
0.137739
0.138525
0.141405
0.146832
0.189602
0.475296
0.471585
0.471623
0.437263
0.242345
0.241054
0.249276
0.281665
0.318463
0.299557
0.23656
0.144801
0.0654303
0.0439971
0.151225
0.149964
0.153009
0.157782
0.170454
0.361753
0.453014
0.446522
0.300877
0.235012
0.234089
0.240454
0.270268
0.32127
0.311026
0.328797
0.149264
0.0640186
0.0461385
0.171988
0.16217
0.165098
0.17092
0.177485
0.199862
0.335723
0.268287
0.231869
0.230409
0.228649
0.2347
0.260874
0.316552
0.32756
0.416034
0.127498
0.0672074
0.0483873
0.254982
0.179069
0.178865
0.18481
0.19327
0.206917
0.224598
0.237337
0.232276
0.227205
0.223839
0.232695
0.26908
0.328164
0.346728
0.46891
0.112774
0.0698355
0.0505552
0.269275
0.276394
0.189816
0.198255
0.206505
0.21478
0.223233
0.230147
0.230936
0.225942
0.224506
0.242021
0.302364
0.337999
0.386399
0.499255
0.120197
0.0717686
0.0513548
0.250963
0.287289
0.299842
0.210594
0.213334
0.217447
0.223348
0.228538
0.23141
0.227754
0.246164
0.382862
0.400357
0.387361
0.516757
0.557275
0.129124
0.0752181
0.052263
0.236102
0.260953
0.289218
0.295855
0.222132
0.219321
0.225977
0.229846
0.234137
0.291462
0.35322
0.396012
0.414997
0.456456
0.594741
0.489977
0.131959
0.0785066
0.0530081
0.227953
0.242529
0.258543
0.269451
0.261651
0.248546
0.249404
0.265833
0.290916
0.354589
0.395821
0.403977
0.417061
0.475679
0.582449
0.413439
0.132528
0.0810332
0.0530964
0.222696
0.233307
0.241766
0.246207
0.246701
0.255533
0.276902
0.302268
0.326175
0.366575
0.397673
0.397659
0.408239
0.466864
0.54083
0.385247
0.140384
0.0828969
0.0524088
0.217994
0.227674
0.234296
0.237465
0.23884
0.246038
0.264189
0.290877
0.321635
0.356875
0.380583
0.380795
0.395048
0.451785
0.507221
0.403318
0.166999
0.0846992
0.0509869
0.213475
0.222897
0.229532
0.23338
0.236083
0.242305
0.256635
0.27942
0.307142
0.335433
0.353946
0.359402
0.380863
0.435403
0.488015
0.43921
0.229825
0.0881984
0.049442
0.209507
0.218731
0.22569
0.230407
0.234182
0.23997
0.251073
0.268568
0.290376
0.312034
0.327396
0.338846
0.367466
0.422452
0.47884
0.46899
0.324222
0.0990604
0.0480849
0.20643
0.215543
0.222871
0.228384
0.232999
0.238633
0.247493
0.260602
0.276804
0.293032
0.306631
0.322745
0.356771
0.413783
0.475363
0.489279
0.390968
0.120131
0.0471051
0.20432
0.213513
0.221301
0.227598
0.233004
0.238739
0.24622
0.25621
0.268138
0.280444
0.293037
0.312189
0.349711
0.40896
0.474793
0.50189
0.426322
0.139214
0.047021
0.203028
0.212516
0.220884
0.227997
0.234199
0.240231
0.246958
0.254901
0.263902
0.273623
0.285657
0.306567
0.346007
0.406698
0.474841
0.507875
0.439643
0.160482
0.0476286
0.202285
0.212233
0.221273
0.229216
0.236206
0.242645
0.249031
0.255719
0.262865
0.271004
0.282715
0.304414
0.344333
0.404796
0.472478
0.505592
0.433407
0.175645
0.0489988
0.201806
0.212303
0.222045
0.230788
0.238521
0.245412
0.251716
0.257703
0.263758
0.270971
0.28239
0.303992
0.342765
0.400378
0.463654
0.490323
0.403082
0.162866
0.054881
0.201335
0.212407
0.222831
0.232309
0.240715
0.248054
0.254436
0.26009
0.265553
0.272215
0.283194
0.303784
0.339597
0.391176
0.445424
0.460418
0.335535
0.137554
0.0592643
0.20067
0.212302
0.223361
0.233498
0.242499
0.250265
0.25682
0.262377
0.267557
0.273843
0.284157
0.302917
0.334234
0.377293
0.419491
0.424985
0.256842
0.128691
0.0577161
0.199649
0.211813
0.223456
0.234184
0.24372
0.251896
0.258685
0.264296
0.269378
0.275366
0.284832
0.30127
0.327408
0.361427
0.392257
0.395735
0.24752
0.125943
0.0541569
0.198137
0.210805
0.222995
0.234273
0.244311
0.252896
0.259974
0.265747
0.270849
0.276595
0.285151
0.299198
0.320452
0.346862
0.370042
0.375361
0.291284
0.130251
0.0499433
0.196006
0.209156
0.221877
0.233693
0.244234
0.253255
0.260683
0.266708
0.271924
0.277495
0.285207
0.29711
0.314337
0.335232
0.354264
0.362704
0.323605
0.160199
0.047372
0.193119
0.206734
0.219984
0.232354
0.243432
0.252943
0.260797
0.267165
0.272586
0.278069
0.285079
0.29521
0.309307
0.326273
0.342627
0.35262
0.332805
0.191239
0.0463463
0.189328
0.203384
0.217168
0.230124
0.241797
0.251876
0.260246
0.267052
0.272772
0.278266
0.284737
0.293451
0.305095
0.318985
0.332712
0.341672
0.329719
0.209136
0.0468181
0.184482
0.198929
0.213241
0.226816
0.239149
0.249887
0.258877
0.266223
0.272336
0.277937
0.284013
0.291581
0.301206
0.312389
0.323134
0.32933
0.319827
0.225576
0.0488944
0.178477
0.193194
0.207988
0.222195
0.235247
0.246733
0.256447
0.264437
0.27103
0.276818
0.282605
0.289206
0.297056
0.305675
0.313182
0.315965
0.306511
0.249165
0.0578838
0.171226
0.186002
0.201193
0.216005
0.229808
0.242115
0.252649
0.261382
0.268535
0.27458
0.280155
0.285893
0.292091
0.29821
0.302423
0.301783
0.292165
0.256635
0.0867654
0.16274
0.177304
0.192693
0.208017
0.222557
0.235725
0.247147
0.256706
0.264501
0.270867
0.276327
0.281315
0.285968
0.289648
0.290531
0.286726
0.276684
0.245943
0.0706855
0.153152
0.167131
0.182401
0.198082
0.213302
0.227337
0.239679
0.250093
0.258602
0.265389
0.270834
0.275244
0.27858
0.280051
0.277976
0.271535
0.258759
0.218931
0.0572038
0.142735
0.155642
0.170347
0.186167
0.202005
0.216934
0.230213
0.241481
0.250681
0.257944
0.26349
0.26753
0.269925
0.269841
0.265749
0.256715
0.239933
0.192863
0.0538249
0.131907
0.143141
0.156718
0.172301
0.18876
0.204814
0.219136
0.231237
0.241051
0.2487
0.254362
0.258162
0.259969
0.259005
0.253582
0.241951
0.221532
0.17213
0.0549587
0.121211
0.130026
0.141567
0.156186
0.173402
0.191609
0.207423
0.220388
0.230693
0.238561
0.244178
0.247663
0.248913
0.247205
0.240595
0.227008
0.208284
0.16667
0.0597495
0.111319
0.116876
0.124878
0.136688
0.154081
0.178147
0.196707
0.210696
0.221359
0.229262
0.234647
0.237606
0.23801
0.235015
0.22584
0.207424
0.199614
0.179834
0.0719556
0.103046
0.104811
0.107521
0.112354
0.123975
0.166128
0.189281
0.204372
0.215274
0.223153
0.228333
0.230829
0.230274
0.225054
0.208895
0.156183
0.15308
0.141778
0.0955926
)
;

boundaryField
{
    leftWall
    {
        type            kqRWallFunction;
        value           nonuniform List<scalar> 
50
(
0.00323058
0.00504139
0.0058597
0.00614637
0.00605739
0.00574707
0.00539856
0.00511491
0.00473274
0.00479383
0.00912761
0.01449
0.0165118
0.0177131
0.0184101
0.0188879
0.0192217
0.019447
0.0195705
0.0195872
0.019496
0.0193065
0.0190352
0.0187019
0.0183267
0.0179297
0.0175315
0.0171516
0.016807
0.0165108
0.0162724
0.0160974
0.0159879
0.0159435
0.0159615
0.0160378
0.016168
0.0163483
0.0165779
0.0168617
0.0172125
0.0176542
0.0182264
0.018993
0.0200612
0.0216195
0.0239835
0.0278727
0.0348766
0.0458391
)
;
    }
    rightWall
    {
        type            kqRWallFunction;
        value           nonuniform List<scalar> 
50
(
0.0198101
0.0278175
0.0358883
0.0425271
0.0458493
0.0467638
0.0463208
0.0449508
0.0431409
0.0392899
0.0350587
0.031679
0.0307865
0.0334536
0.0400443
0.0424972
0.0439971
0.0461385
0.0483873
0.0505552
0.0513548
0.052263
0.0530081
0.0530964
0.0524088
0.0509869
0.049442
0.0480849
0.0471051
0.047021
0.0476286
0.0489988
0.054881
0.0592643
0.0577161
0.0541569
0.0499433
0.047372
0.0463463
0.0468181
0.0488944
0.0578838
0.0867654
0.0706855
0.0572038
0.0538249
0.0549587
0.0597495
0.0719556
0.0955926
)
;
    }
    lowerWall
    {
        type            kqRWallFunction;
        value           nonuniform List<scalar> 
62
(
0.00323058
0.00482522
0.00641228
0.00759996
0.00850289
0.00924642
0.00993356
0.0106041
0.0112657
0.0119101
0.0125177
0.0130625
0.0135205
0.0138607
0.0140017
0.013867
0.0134048
0.0126364
0.0117143
0.0107628
0.00991842
0.00872438
0.0062978
0.0062978
0.0111488
0.0141364
0.0171334
0.0205654
0.0250978
0.0315609
0.040344
0.0477616
0.0535831
0.0667615
0.0869833
0.0424244
0.0746575
0.0841077
0.0860344
0.0851882
0.0822986
0.0774698
0.073814
0.0424244
0.0451036
0.0589132
0.0678785
0.0727587
0.0737584
0.0709567
0.0716721
0.0757019
0.0816499
0.0890695
0.0964567
0.102041
0.102596
0.0949384
0.0808086
0.0643751
0.0424861
0.0198101
)
;
    }
    atmosphere
    {
        type            inletOutlet;
        inletValue      uniform 0.1;
        value           nonuniform List<scalar> 
46
(
0.0458391
0.0786091
0.0878888
0.0926901
0.1
0.1
0.1
0.1
0.1
0.1
0.1
0.1
0.1
0.1
0.1
0.1
0.1
0.1
0.1
0.1
0.1
0.1
0.1
0.1
0.1
0.1
0.1
0.1
0.1
0.1
0.1
0.1
0.166128
0.189281
0.204372
0.215274
0.223153
0.228333
0.230829
0.230274
0.225054
0.208895
0.1
0.1
0.1
0.0955926
)
;
    }
    defaultFaces
    {
        type            empty;
    }
}


// ************************************************************************* //
