/*--------------------------------*- C++ -*----------------------------------*\
| =========                 |                                                 |
| \\      /  F ield         | OpenFOAM: The Open Source CFD Toolbox           |
|  \\    /   O peration     | Version:  v2012                                 |
|   \\  /    A nd           | Website:  www.openfoam.com                      |
|    \\/     M anipulation  |                                                 |
\*---------------------------------------------------------------------------*/
FoamFile
{
    version     2.0;
    format      ascii;
    class       volScalarField;
    location    "0.75";
    object      nut;
}
// * * * * * * * * * * * * * * * * * * * * * * * * * * * * * * * * * * * * * //

dimensions      [0 2 -1 0 0 0 0];


internalField   nonuniform List<scalar> 
2268
(
5.1557e-05
4.63119e-05
5.33001e-05
5.79872e-05
6.13578e-05
6.40666e-05
6.64925e-05
6.8775e-05
7.09469e-05
7.29885e-05
7.48484e-05
7.64625e-05
7.7781e-05
7.87293e-05
7.90918e-05
7.86848e-05
7.73773e-05
7.52002e-05
7.25995e-05
6.99393e-05
6.74604e-05
6.28886e-05
5.24508e-05
0.000100506
0.000224996
0.00032356
0.000395147
0.000445138
0.000484676
0.000518655
0.000549711
0.000579246
0.000607588
0.000634229
0.000658092
0.000677503
0.000691296
0.000699696
0.000700778
0.000692604
0.000673926
0.000646594
0.000614871
0.000556632
0.000413146
0.00014829
0.000108592
0.000370626
0.000543542
0.000674682
0.000779295
0.000867754
0.000945481
0.00101618
0.00108205
0.00114366
0.00120022
0.00124996
0.00129053
0.00131919
0.00133543
0.00133556
0.00131633
0.00127601
0.00121399
0.00112326
0.00096609
0.000665245
0.000167346
0.000111546
0.000460474
0.000688394
0.000873143
0.00103142
0.00116878
0.0012899
0.00139916
0.00149947
0.00159173
0.00167507
0.00174738
0.00180583
0.00184705
0.00186903
0.00186716
0.0018371
0.00177556
0.0016771
0.00152397
0.00127083
0.000842714
0.00018457
0.000111096
0.000502019
0.000774154
0.00101112
0.00122238
0.00140733
0.00156986
0.00171525
0.00184721
0.00196706
0.00207408
0.00216605
0.00223982
0.00229165
0.00231842
0.00231483
0.00227526
0.00219393
0.00205959
0.00184475
0.00149728
0.000954033
0.000202552
0.00010834
0.00050354
0.000814209
0.00110395
0.0013671
0.00159717
0.00179825
0.00197682
0.00213748
0.00228209
0.00241019
0.00251951
0.00260673
0.00266789
0.00269914
0.00269448
0.00264685
0.00254747
0.00237869
0.00210258
0.00165875
0.00100238
0.00022407
0.000104609
0.000474197
0.000821048
0.0011641
0.00147634
0.00174757
0.00198341
0.00219177
0.00237808
0.00254484
0.00269182
0.0028167
0.00291599
0.00298564
0.00302142
0.00301658
0.00296266
0.00284807
0.00264915
0.00231719
0.00177994
0.00101427
0.000251602
0.000101467
0.000429828
0.000808646
0.00120278
0.00155829
0.00186494
0.00213089
0.00236523
0.00257402
0.00276053
0.00292458
0.00306359
0.00317388
0.00325147
0.00329214
0.00328828
0.0032304
0.00310513
0.00288514
0.00251447
0.00191113
0.0010631
0.000285133
0.000136068
0.000142873
0.00016299
0.00017458
0.000180113
0.000181466
0.000177559
0.000178596
0.000184339
0.000192417
0.000201824
0.000210081
0.000214949
0.000213131
0.000202168
0.000185142
0.000165772
0.000134789
0.000131549
0.000433115
0.000467708
0.000572269
0.000781069
0.00099183
0.00104249
0.00103967
0.0010364
0.00108103
0.00119195
0.00133001
0.00147315
0.00159899
0.00165168
0.00157698
0.00142414
0.00121084
0.000881667
0.000256908
0.000462525
0.000637486
0.000840007
0.00117043
0.00139295
0.0014935
0.00156177
0.00167209
0.00185731
0.00209828
0.0023632
0.00262213
0.00282306
0.0028733
0.00268397
0.00234177
0.00190758
0.00127087
0.000290049
0.00047017
0.000694703
0.000942775
0.00132425
0.00158578
0.00172139
0.00176216
0.00186635
0.00219162
0.00259827
0.00300217
0.00335834
0.00360194
0.00362947
0.00334063
0.00284323
0.00224378
0.00143797
0.000316751
0.000468982
0.000705117
0.00104315
0.00148781
0.00166012
0.00174543
0.00180153
0.00188213
0.00219143
0.0027308
0.00330114
0.00376591
0.0040594
0.00407441
0.0037114
0.00309985
0.00238149
0.00149799
0.000328309
0.000461614
0.000699949
0.00103554
0.00140821
0.00153593
0.00160121
0.00170256
0.0018239
0.00201508
0.00252597
0.00330507
0.00395247
0.00430444
0.0043174
0.00390525
0.00320703
0.00241563
0.00150226
0.000330287
0.000449956
0.000704363
0.000979662
0.00138192
0.00155818
0.00157738
0.00147591
0.00158439
0.00174672
0.0020672
0.00282075
0.0039175
0.00441475
0.00443104
0.00399134
0.00321612
0.00238017
0.00147276
0.000326922
0.00043685
0.000740095
0.00116843
0.00163548
0.00173227
0.00169352
0.00140701
0.00136817
0.00145164
0.00173173
0.00241046
0.003693
0.00441911
0.00446943
0.00401719
0.00315229
0.0022926
0.00142097
0.00032101
9.73576e-05
0.000373201
0.000783656
0.00124879
0.0016586
0.00200866
0.00231157
0.00257831
0.0028173
0.00303173
0.00322038
0.0033799
0.00350607
0.00359465
0.00364108
0.00363818
0.00357603
0.00344053
0.00320401
0.00281389
0.00220939
0.00142193
0.000683354
9.8198e-05
0.000394272
0.000826097
0.00130684
0.00173322
0.00210223
0.00242924
0.00272595
0.00299376
0.00323352
0.00344311
0.00361989
0.00376143
0.00386454
0.00392316
0.00393006
0.00387736
0.00375728
0.00355737
0.00325758
0.00284553
0.00235757
0.0018941
0.000125178
0.000479056
0.000883371
0.00134836
0.00176433
0.00212535
0.00244841
0.00275592
0.00304268
0.00329425
0.00351649
0.003709
0.00386917
0.00398891
0.00405723
0.00407044
0.00402817
0.00392891
0.00376929
0.00354937
0.00328019
0.00300371
0.00277681
0.000164156
0.000879648
0.00142833
0.00192193
0.00240443
0.00285616
0.00323445
0.00341139
0.00327024
0.00336217
0.00354925
0.0037286
0.00388164
0.00399732
0.00406283
0.00407016
0.0040277
0.00395574
0.00383044
0.00365776
0.00346031
0.00329848
0.00324142
0.00017882
0.00114621
0.00188502
0.00246253
0.00298247
0.00346548
0.00388668
0.00418876
0.00436897
0.00457104
0.00480367
0.00502506
0.00520266
0.00530411
0.0052944
0.00507313
0.00437566
0.00402421
0.00386607
0.00367986
0.00346195
0.00326055
0.00333957
0.000186628
0.00132334
0.00223243
0.00292047
0.00350165
0.00401765
0.00446683
0.00482924
0.00511586
0.00538787
0.00566744
0.00593309
0.00615782
0.00631577
0.00638
0.0063284
0.00617039
0.00606674
0.00592299
0.00563525
0.00515451
0.00440973
0.00349951
0.000191083
0.00143325
0.00249114
0.00329805
0.00395756
0.00452109
0.00500513
0.00541157
0.00575406
0.00606581
0.0063668
0.00665139
0.00690414
0.00711132
0.00726283
0.0073553
0.00740135
0.00741415
0.00731402
0.00699271
0.00639261
0.005572
0.00476374
0.000193926
0.00150775
0.00268955
0.00360759
0.00434947
0.00496949
0.0054948
0.00593951
0.00631939
0.00665711
0.00697001
0.00726199
0.00752887
0.00776639
0.00797376
0.00815128
0.00829309
0.0083752
0.00832688
0.00805574
0.00749342
0.00664697
0.00566397
0.000195875
0.00156749
0.00284972
0.00386368
0.00468271
0.00536043
0.00592931
0.00640993
0.00681994
0.00717806
0.00750013
0.00779508
0.00806653
0.00831716
0.00855102
0.00876989
0.00896035
0.00908642
0.00908736
0.00888563
0.00840709
0.00762235
0.00663741
0.000197203
0.00161954
0.00298336
0.00407729
0.00496431
0.00569615
0.00630752
0.00682225
0.00725931
0.00763602
0.00796742
0.00826483
0.00853637
0.00878911
0.00902995
0.00926191
0.00947355
0.00962812
0.00967169
0.00953925
0.00916344
0.00850041
0.00760197
0.000197988
0.00166463
0.0030949
0.00425454
0.00519972
0.00598014
0.00663111
0.00717797
0.00764045
0.0080354
0.00837743
0.00867878
0.00894979
0.00919991
0.00943773
0.00966782
0.00988298
0.0100554
0.0101362
0.0100706
0.00980189
0.00928426
0.0085186
0.000198222
0.00170135
0.00318526
0.00439849
0.00539272
0.0062158
0.0069028
0.00747961
0.00796629
0.0083795
0.00873359
0.00904105
0.00931309
0.00956019
0.00979185
0.0100141
0.010224
0.0104028
0.0105139
0.0105101
0.0103425
0.00996757
0.00935807
0.000197902
0.00172843
0.00325445
0.00451097
0.00554621
0.00640632
0.00712571
0.00773018
0.00823983
0.00867119
0.00903839
0.00935394
0.00962924
0.00987506
0.0101012
0.010315
0.0105168
0.0106957
0.010826
0.0108704
0.0107872
0.0105362
0.0100814
0.000197065
0.00174544
0.00330297
0.00459369
0.00566284
0.00655482
0.00730305
0.00793286
0.00846411
0.00891314
0.00929393
0.00961887
0.00989933
0.010146
0.0103688
0.0105756
0.0107696
0.0109456
0.0110872
0.011167
0.0111508
0.011003
0.0106884
0.000195785
0.00175294
0.00333206
0.00464874
0.00574533
0.00666439
0.00743806
0.00809085
0.00864214
0.00910797
0.00950212
0.00983689
0.0101235
0.0103726
0.010594
0.0107958
0.0109831
0.0111549
0.0113017
0.0114049
0.0114384
0.011372
0.0111745
0.000194155
0.00175213
0.00334367
0.00467858
0.00579657
0.00673818
0.007534
0.00820736
0.00877691
0.00925823
0.00966487
0.010009
0.0103018
0.0105538
0.0107747
0.0109729
0.0111544
0.0113211
0.0114685
0.011585
0.0116516
0.0116447
0.0115383
0.000192272
0.00174457
0.00334005
0.00468592
0.00581958
0.00677942
0.00759413
0.00828558
0.00887139
0.00936652
0.00978418
0.0101364
0.0104344
0.0106886
0.0109088
0.0111036
0.0112796
0.0114405
0.0115852
0.0117068
0.0117926
0.011825
0.0117833
0.000190238
0.00173175
0.0033235
0.00467357
0.00581753
0.00679142
0.00762178
0.00832874
0.00892862
0.00943556
0.00986231
0.0102208
0.0105221
0.010777
0.0109952
0.0111856
0.0113556
0.0115097
0.011649
0.0117701
0.0118646
0.0119199
0.0119199
0.000188152
0.00171481
0.00329618
0.00464441
0.00579366
0.00677762
0.00762043
0.00834023
0.00895184
0.00946834
0.00990192
0.0102642
0.0105666
0.0108197
0.0110338
0.0112182
0.0113806
0.0115266
0.0116588
0.0117758
0.0118722
0.0119389
0.0119635
0.000186118
0.00169477
0.00326019
0.00460133
0.00575138
0.00674163
0.00759375
0.00832368
0.00894454
0.00946822
0.00990617
0.0102698
0.0105703
0.0108189
0.0110263
0.0112023
0.0113553
0.0114917
0.0116153
0.0117261
0.0118208
0.0118926
0.0119313
0.000184227
0.00167266
0.00321771
0.00454739
0.00569427
0.00668732
0.00754568
0.00828303
0.00891064
0.00943904
0.00987884
0.0102411
0.010537
0.0107782
0.010976
0.0111409
0.0112823
0.0114075
0.0115213
0.011625
0.0117167
0.011791
0.0118395
0.000182558
0.00164957
0.00317099
0.00448573
0.00562607
0.00661875
0.00748044
0.00822255
0.00885444
0.00938517
0.0098244
0.0101827
0.0104714
0.0107024
0.0108877
0.011039
0.0111665
0.0112787
0.0113816
0.0114778
0.0115665
0.0116434
0.0117012
0.000181175
0.00162661
0.00312233
0.0044196
0.00555063
0.00654014
0.00740248
0.00814682
0.00878063
0.00931145
0.0097479
0.0101
0.010379
0.0105973
0.0107678
0.0109029
0.0110144
0.011112
0.0112029
0.0112913
0.0113773
0.0114579
0.0115265
0.000180119
0.00160478
0.00307397
0.00435217
0.00547179
0.00645577
0.00731631
0.00806056
0.00869412
0.00922304
0.00965481
0.00999883
0.0102663
0.0104699
0.0106234
0.0107404
0.0108339
0.0109152
0.010993
0.0110728
0.0111563
0.0112414
0.0113225
0.000179412
0.00158495
0.00302796
0.00428644
0.00539323
0.00636977
0.00722641
0.00796847
0.00859987
0.00912517
0.00955078
0.00988536
0.0101399
0.0103275
0.0104625
0.0105597
0.0106337
0.0106971
0.0107604
0.0108306
0.0109109
0.0110004
0.0110943
0.000179062
0.0015678
0.00298608
0.00422509
0.00531833
0.00628602
0.007137
0.00787506
0.00850263
0.00902295
0.0094413
0.0097656
0.0100065
0.0101773
0.010293
0.0103695
0.0104225
0.0104666
0.0105138
0.0105727
0.010648
0.0107405
0.0108462
0.000179058
0.00155382
0.00294975
0.00417041
0.00525006
0.006208
0.00705194
0.00778446
0.00840679
0.00892104
0.00933145
0.00964513
0.00987234
0.0100262
0.0101224
0.0101776
0.0102089
0.0102322
0.0102614
0.0103067
0.0103746
0.0104672
0.0105818
0.00017938
0.00154337
0.00292011
0.00412431
0.00519098
0.0061388
0.00697467
0.00770035
0.00831626
0.00882358
0.00922566
0.00952881
0.00974271
0.00988031
0.00995734
0.00999133
0.0100004
0.0100018
0.0100109
0.0100398
0.0100968
0.0101856
0.0103048
0.000180006
0.00153668
0.00289806
0.0040884
0.00514336
0.00608116
0.00690826
0.00762602
0.0082344
0.00873404
0.0091276
0.00942067
0.00962222
0.00974474
0.00980386
0.00981746
0.00980445
0.00978331
0.00977072
0.00978035
0.00982204
0.00990127
0.0100189
0.000180912
0.00153398
0.00288446
0.00406422
0.00510932
0.00603767
0.00685557
0.00756441
0.00816416
0.00865534
0.00904026
0.00932381
0.0095142
0.00962321
0.009666
0.0096604
0.00962579
0.00958157
0.00954569
0.00953334
0.00955599
0.00962073
0.00972993
0.000182094
0.00153565
0.00288035
0.0040535
0.00509117
0.00601103
0.00681947
0.00751834
0.00810818
0.0085899
0.00896577
0.00924028
0.00942083
0.00951823
0.00954676
0.00952373
0.00946849
0.00940101
0.00934034
0.00930316
0.00930262
0.00934757
0.00944211
0.000183573
0.00154235
0.00288725
0.00405849
0.00509175
0.00600435
0.00680308
0.00749071
0.00806895
0.00853968
0.00890569
0.00917137
0.00934337
0.00943132
0.0094482
0.00941021
0.00933607
0.00924585
0.00915937
0.00909467
0.00906668
0.00908621
0.00915935
0.000185412
0.00155518
0.00290741
0.0040824
0.00511481
0.00602154
0.00681007
0.00748468
0.00804893
0.00850642
0.00886108
0.00911761
0.00928209
0.00936287
0.0093712
0.00932155
0.00923136
0.00912004
0.0090077
0.00891346
0.00885403
0.0088424
0.008887
0.000187729
0.00157587
0.00294421
0.00412981
0.00516548
0.00606766
0.00684492
0.00750381
0.00805066
0.00849161
0.00883246
0.00907871
0.0092362
0.00931195
0.00931521
0.00925816
0.00915608
0.00902695
0.00889034
0.00876594
0.00867201
0.00862383
0.00863258
0.000190714
0.00160685
0.00300253
0.0042073
0.00525094
0.00614937
0.0069131
0.00755212
0.00807667
0.00849642
0.00881974
0.00905355
0.00920373
0.00927617
0.00927798
0.00921855
0.00911029
0.00896872
0.00881186
0.00865906
0.00852953
0.00844067
0.00840661
0.00019466
0.00165146
0.00308953
0.00432454
0.00538126
0.00627547
0.00702124
0.00763397
0.00812932
0.0085215
0.00882217
0.00904008
0.00918157
0.00925163
0.00925527
0.00919891
0.00909152
0.00894521
0.00877525
0.00859935
0.00843653
0.00830558
0.00822339
0.000200032
0.00171426
0.00321625
0.00449631
0.00557091
0.00645745
0.00717707
0.00775368
0.0082103
0.00856668
0.00883812
0.00903542
0.00916559
0.009233
0.00924085
0.00919274
0.00909399
0.00895268
0.00878016
0.00859101
0.00840235
0.00823281
0.00810104
0.000207678
0.00180292
0.0034018
0.00474682
0.00584136
0.00671022
0.00738894
0.00791465
0.00831992
0.00863045
0.00886495
0.00903594
0.00915099
0.00921406
0.00922702
0.00919109
0.00910832
0.00898266
0.00882093
0.00863316
0.00843267
0.0082356
0.00806006
0.000218788
0.00193662
0.00368539
0.00511798
0.00622449
0.00705187
0.00766412
0.00811778
0.00845601
0.0087095
0.00889899
0.00903764
0.00913303
0.00918872
0.00920571
0.00918367
0.0091222
0.00902187
0.00888511
0.00871691
0.00852523
0.0083212
0.00811907
0.000235712
0.00214754
0.00413644
0.00567976
0.006763
0.00749969
0.00800474
0.00835863
0.00861248
0.00879825
0.0089357
0.00903674
0.00910796
0.0091523
0.00917027
0.00916087
0.00912252
0.00905373
0.00895384
0.00882354
0.00866532
0.00848392
0.00828671
0.000261687
0.00245028
0.00481995
0.00650714
0.00749678
0.00805721
0.00839956
0.00862372
0.00877826
0.00888895
0.00897028
0.00903052
0.00907412
0.00910302
0.00911746
0.00911655
0.00909874
0.00906218
0.00900508
0.00892594
0.00882375
0.0086981
0.0085494
0.000292387
0.0026979
0.00556567
0.00751223
0.00842145
0.0086896
0.00881404
0.00888828
0.00893785
0.00897302
0.00899894
0.00901842
0.00903296
0.0090432
0.0090492
0.0090506
0.00904676
0.00903685
0.00901992
0.00899492
0.0089607
0.00891592
0.00885886
0.000321528
0.000340596
0.000377668
0.000419194
0.001578
0.00146205
0.00140252
0.0014166
0.00263763
0.00259803
0.00261082
0.00266655
0.00329092
0.0033861
0.00352584
0.00366198
0.00355546
0.0037899
0.00398315
0.00405373
0.00374968
0.00400908
0.00407913
0.0040605
0.00437521
0.00427449
0.00413275
0.00401804
0.00495946
0.00462588
0.0043463
0.00415963
0.00583926
0.00535139
0.00484572
0.00450096
0.00682003
0.00632979
0.00573724
0.00508206
0.00778208
0.00732804
0.00684165
0.00620141
0.00870979
0.00828217
0.00785736
0.00743406
0.00955659
0.00917889
0.00878266
0.00840684
0.0102938
0.00998649
0.00964047
0.00927407
0.0108978
0.0106663
0.010392
0.0100764
0.0113582
0.0111957
0.0109954
0.0107536
0.0116756
0.0115682
0.0114304
0.0112581
0.0118617
0.0117937
0.011702
0.0115832
0.0119366
0.0118947
0.011834
0.011752
0.0119239
0.0118989
0.0118586
0.0118009
0.0118458
0.0118328
0.0118071
0.0117667
0.0117199
0.0117177
0.0117047
0.0116793
0.0115587
0.0115679
0.0115683
0.011558
0.0113698
0.0113916
0.0114066
0.0114129
0.0111577
0.0111927
0.0112231
0.011247
0.0109249
0.010973
0.0110186
0.01106
0.0106739
0.0107335
0.010793
0.0108507
0.0104068
0.0104757
0.0105468
0.0106183
0.0101265
0.0102017
0.0102813
0.0103635
0.00983684
0.00991439
0.00999887
0.0100883
0.00954277
0.00961849
0.00970322
0.00979547
0.0092481
0.00931825
0.00939923
0.00948967
0.00895777
0.00901835
0.00909139
0.00917565
0.00867888
0.00872562
0.00878629
0.00885989
0.00842168
0.00844995
0.00849336
0.0085512
0.00820076
0.00820581
0.00822669
0.00826313
0.00803597
0.00801356
0.00800668
0.00801572
0.00795215
0.0079
0.00786143
0.00783756
0.0079766
0.00789719
0.00782699
0.00776769
0.00813187
0.0080369
0.00794429
0.00785561
0.00842118
0.00833604
0.0082466
0.00815311
0.00880565
0.00876786
0.00872569
0.00867842
0.00063498
0.00133245
0.00183772
0.00201228
0.00201326
0.00191308
0.00152252
0.00126095
0.00122538
0.00131889
0.00201236
0.0036222
0.00438986
0.00448849
0.00402021
0.00297707
0.00213501
0.00134651
0.000313319
0.00164088
0.00236442
0.00266945
0.00272357
0.00261327
0.00227111
0.00163056
0.00127084
0.00117835
0.00124368
0.00187451
0.00399503
0.00450513
0.0045446
0.00391722
0.00254179
0.00182611
0.00120363
0.000297627
0.00287912
0.00340144
0.00344143
0.00327774
0.00292298
0.00246869
0.00187835
0.00135609
0.00125663
0.00139097
0.00233754
0.00429456
0.0046309
0.0045711
0.00373664
0.00240826
0.00158975
0.00107107
0.000281507
0.00382737
0.00392586
0.00375157
0.00338771
0.00248142
0.00274178
0.0023387
0.00164593
0.00174799
0.00180092
0.00312082
0.00444989
0.00467725
0.00451865
0.00347836
0.00241723
0.00169319
0.00094137
0.000271466
0.00406019
0.0039504
0.00382349
0.00239869
0.00263305
0.00296811
0.00254513
0.00207736
0.0021169
0.00227823
0.00369087
0.00450267
0.00476361
0.0043258
0.0031031
0.00238908
0.00177505
0.000808566
0.000275228
0.00396955
0.00381167
0.00357298
0.00203515
0.0027603
0.00304499
0.00272478
0.00253896
0.00241255
0.00311911
0.00381862
0.00451135
0.00487538
0.00420564
0.00297137
0.00240305
0.00173947
0.000892999
0.000303997
0.0039278
0.0038192
0.00358356
0.00218855
0.00281037
0.00312828
0.0029538
0.00274784
0.0026631
0.00330457
0.00414207
0.00486536
0.00497168
0.00426273
0.00303606
0.00236365
0.00170549
0.000933385
0.000319386
0.00408023
0.00403759
0.00389995
0.00328699
0.00249322
0.00327305
0.00312912
0.00294828
0.00292299
0.00357488
0.00476736
0.00506194
0.00500101
0.0044751
0.00332707
0.00225497
0.00171547
0.000891337
0.000326455
0.00435515
0.00435908
0.00433793
0.00417101
0.00242612
0.00321344
0.0032624
0.00317313
0.00303847
0.00503736
0.00510899
0.00508464
0.00498242
0.00467772
0.00362038
0.00236647
0.00178163
0.000856558
0.00033491
0.00465249
0.00464417
0.00467305
0.00466812
0.00431198
0.00283035
0.00324274
0.00322094
0.00312606
0.00516057
0.00516193
0.00505887
0.00492176
0.00472434
0.00368878
0.0027365
0.00182681
0.000854949
0.000344652
0.00500757
0.0048983
0.00494865
0.00501293
0.00506018
0.0045592
0.00331121
0.00409035
0.00536468
0.00530147
0.00519183
0.00503308
0.00482959
0.00464542
0.0036889
0.00300408
0.00153809
0.000991413
0.000354013
0.00666227
0.0051496
0.00517027
0.00526205
0.00536152
0.00547677
0.00549056
0.00551794
0.00550621
0.00537489
0.00523036
0.005057
0.00470553
0.0045482
0.00370901
0.00319113
0.00139292
0.00113852
0.000359333
0.00793637
0.00682973
0.00530924
0.00545772
0.00557998
0.00566378
0.00569274
0.00568333
0.0056041
0.0054525
0.00528492
0.00503533
0.00442915
0.00437166
0.00380455
0.00335215
0.00145766
0.00119111
0.000361162
0.00875443
0.00814217
0.00724284
0.00562678
0.00568368
0.00573018
0.00575423
0.0057365
0.00565057
0.0054854
0.00503775
0.00478226
0.00450613
0.00415448
0.00427534
0.00387908
0.00157864
0.00125871
0.00036405
0.00954646
0.00885777
0.00826092
0.00748111
0.00582404
0.00575514
0.00578548
0.00575439
0.00565447
0.00536081
0.00499705
0.00482191
0.00452634
0.00437667
0.00465199
0.00379532
0.00170869
0.00130431
0.000364594
0.0103109
0.00961782
0.00892454
0.0082765
0.00762557
0.0072318
0.00697604
0.00679355
0.00633161
0.00592115
0.00543009
0.00502219
0.0047174
0.00472809
0.00493349
0.00362821
0.00181748
0.00133652
0.000360981
0.0109297
0.0103586
0.00969515
0.00903387
0.00851344
0.00827213
0.00806241
0.00763355
0.00699551
0.00638505
0.00574309
0.00524556
0.00497617
0.00506509
0.00512152
0.0037917
0.00198029
0.00135573
0.000353618
0.0113509
0.0109232
0.0103818
0.00979706
0.00927394
0.00888822
0.00852019
0.00800309
0.00734077
0.00665536
0.00597654
0.00545376
0.00524562
0.00536408
0.00535143
0.00431838
0.00232069
0.00135296
0.000345268
0.0115876
0.0112708
0.0108422
0.0103417
0.00982964
0.00934328
0.00883317
0.00822259
0.00751953
0.00680222
0.00612831
0.00565275
0.00551847
0.0056517
0.00565868
0.00499862
0.00303342
0.00127989
0.000340412
0.0116819
0.0114408
0.0110934
0.0106575
0.0101642
0.00963291
0.00904658
0.00837889
0.00764878
0.00692059
0.00627668
0.00586865
0.00579754
0.00595285
0.00602179
0.00562492
0.00411932
0.00121338
0.000337625
0.0116801
0.0114926
0.0112048
0.0108209
0.0103561
0.00982208
0.00921615
0.00853479
0.0078037
0.00708638
0.00648215
0.006133
0.00610466
0.00628297
0.0064081
0.00615008
0.00493133
0.00135323
0.000337537
0.0116203
0.0114775
0.0112405
0.0109064
0.0104815
0.0099736
0.009386
0.00872479
0.00801824
0.00733132
0.00677005
0.00646224
0.00645366
0.00664003
0.00678508
0.00656398
0.00541615
0.00160809
0.00034192
0.0115272
0.0114289
0.011243
0.0109621
0.0105874
0.0101241
0.00957752
0.00895797
0.00829487
0.00765237
0.00713349
0.0068494
0.00683556
0.00700057
0.00711905
0.00685999
0.00566333
0.00200294
0.00034746
0.0114127
0.0113623
0.0112312
0.0110089
0.0106928
0.0102854
0.00979262
0.00922686
0.008618
0.00802661
0.00754539
0.00726701
0.00722015
0.00732697
0.00737399
0.00701933
0.00568369
0.00240467
0.000356257
0.0112794
0.0112802
0.0112078
0.0110488
0.0107971
0.0104526
0.0100208
0.00951502
0.00896454
0.00842394
0.00797122
0.00767953
0.00757158
0.00758349
0.00751752
0.0070095
0.00539697
0.00235479
0.000403999
0.0111251
0.0111782
0.0111664
0.0110734
0.0108897
0.0106125
0.0102458
0.00980275
0.00931062
0.00881606
0.00838063
0.00805871
0.00786776
0.00775668
0.00754334
0.00683106
0.00460265
0.00205771
0.000394625
0.0109465
0.0110503
0.0110982
0.0110713
0.0109569
0.0107492
0.0104501
0.0100709
0.00963537
0.0091812
0.00875413
0.00839258
0.00811017
0.00786657
0.00749624
0.00659886
0.00362043
0.00193227
0.000370804
0.010741
0.0108912
0.0109953
0.0110322
0.0109862
0.0108484
0.0106178
0.0103028
0.00992232
0.00950502
0.00908321
0.00868364
0.00831835
0.00795841
0.00746624
0.00650398
0.00364253
0.00188238
0.000353773
0.0105079
0.0106979
0.0108524
0.0109485
0.0109679
0.0108984
0.0107359
0.010485
0.0101592
0.00977876
0.00936587
0.00894001
0.00851432
0.00807344
0.00751756
0.00659715
0.00454752
0.00191839
0.000338374
0.0102482
0.01047
0.0106673
0.0108161
0.0108957
0.0108913
0.0107951
0.0106077
0.0103372
0.00999668
0.00960137
0.0091669
0.00870885
0.0082249
0.00765018
0.00681391
0.00532758
0.00230874
0.000336969
0.00996433
0.0102091
0.0104406
0.0106341
0.0107673
0.0108227
0.0107896
0.0106643
0.0104499
0.0101541
0.00978718
0.00936281
0.00889852
0.00840082
0.00782752
0.00704793
0.00576668
0.00278411
0.000338227
0.00965977
0.00991794
0.0101745
0.010404
0.010583
0.0106918
0.010717
0.0106512
0.0104933
0.0102466
0.00991825
0.00952019
0.00906998
0.00857704
0.00800859
0.00724686
0.00602448
0.00312634
0.00034642
0.00933898
0.00960064
0.00987259
0.0101291
0.0103454
0.0105003
0.0105777
0.0105675
0.010465
0.0102704
0.00998794
0.00962782
0.00920522
0.00872735
0.00816211
0.00739591
0.00618952
0.00354172
0.000360407
0.00900912
0.00926235
0.0095395
0.00981358
0.0100585
0.0102516
0.0103746
0.0104147
0.0103648
0.0102223
0.00998949
0.00967368
0.0092858
0.00882794
0.00826579
0.00749373
0.00631693
0.00420221
0.000444504
0.00867773
0.00890937
0.009181
0.00946287
0.00972766
0.00995077
0.0101121
0.0101966
0.0101943
0.0101016
0.00991825
0.00964796
0.00929608
0.00885807
0.00829743
0.00752052
0.00637352
0.00447224
0.000510173
0.00835729
0.00855358
0.00880565
0.00908423
0.00935968
0.00960482
0.009797
0.00991924
0.00995954
0.00991149
0.00977301
0.00954449
0.0092253
0.00880187
0.00823233
0.00744282
0.00631704
0.00441325
0.000379596
0.00806657
0.00821028
0.00842565
0.00868791
0.00896434
0.00922379
0.00943949
0.00959188
0.00966791
0.00965767
0.0095575
0.0093645
0.00907054
0.00865322
0.00807839
0.00729809
0.0061356
0.00405105
0.000369429
0.00783362
0.00790347
0.00806012
0.00828837
0.008555
0.00882267
0.00905578
0.00923059
0.0093328
0.00935246
0.00928246
0.00911627
0.00884002
0.00842951
0.00786633
0.00707752
0.00585842
0.00364089
0.000364585
0.00769998
0.00767156
0.00773909
0.00790472
0.00814684
0.00842184
0.00867073
0.00886197
0.00898119
0.00901975
0.00896966
0.00882125
0.00855918
0.00815553
0.00757833
0.00674502
0.00547264
0.00325826
0.000368699
0.00772645
0.00758039
0.0075155
0.00756564
0.00775039
0.00804379
0.00831761
0.00852379
0.00865271
0.00869996
0.00865864
0.00851761
0.00825814
0.00784701
0.00722916
0.00631189
0.00504248
0.00309218
0.000386211
0.00799687
0.00775627
0.00752697
0.00736555
0.00738307
0.00771121
0.0080345
0.00826047
0.00839482
0.00844355
0.00840262
0.00825952
0.00799093
0.00755452
0.00687575
0.00586507
0.00476864
0.00327898
0.000427399
0.00859034
0.00842086
0.00818042
0.00782985
0.00738633
0.00747523
0.00786417
0.00811278
0.00825092
0.00829855
0.00825539
0.00810812
0.00782999
0.00737326
0.00665689
0.00570552
0.00511084
0.0040086
0.000483668
)
;

boundaryField
{
    leftWall
    {
        type            nutkWallFunction;
        blending        stepwise;
        Cmu             0.09;
        kappa           0.41;
        E               9.8;
        value           nonuniform List<scalar> 
50
(
9.70502e-06
1.19909e-05
1.28717e-05
1.3164e-05
1.30741e-05
1.27547e-05
1.23844e-05
1.20731e-05
1.16409e-05
1.1855e-05
1.0787e-05
1.57199e-05
1.7394e-05
1.83397e-05
1.88719e-05
1.92301e-05
1.94773e-05
1.96428e-05
1.97331e-05
1.97453e-05
1.96787e-05
1.95398e-05
1.93395e-05
1.90913e-05
1.88088e-05
1.85063e-05
1.8199e-05
1.79022e-05
1.76296e-05
1.73928e-05
1.72005e-05
1.70582e-05
1.69688e-05
1.69324e-05
1.69471e-05
1.70096e-05
1.71157e-05
1.72619e-05
1.74467e-05
1.76731e-05
1.795e-05
1.82941e-05
1.87328e-05
1.93083e-05
2.00886e-05
2.11857e-05
2.27674e-05
2.51877e-05
2.91037e-05
3.44236e-05
)
;
    }
    rightWall
    {
        type            nutkWallFunction;
        blending        stepwise;
        Cmu             0.09;
        kappa           0.41;
        E               9.8;
        value           nonuniform List<scalar> 
50
(
2.49802e-05
2.9188e-05
3.27985e-05
3.54463e-05
3.6685e-05
3.70172e-05
3.68561e-05
3.63503e-05
3.56744e-05
3.41827e-05
3.24487e-05
3.09836e-05
3.06132e-05
3.22224e-05
3.4997e-05
3.58339e-05
3.63306e-05
3.71274e-05
3.79784e-05
3.87934e-05
3.89772e-05
3.92905e-05
3.9545e-05
3.95753e-05
3.93381e-05
3.88487e-05
3.83127e-05
3.78387e-05
3.7491e-05
3.74751e-05
3.79443e-05
4.09772e-05
4.49403e-05
4.51989e-05
4.2141e-05
4.07583e-05
3.92706e-05
3.83337e-05
3.79581e-05
3.81449e-05
3.93709e-05
4.46476e-05
5.56647e-05
5.09185e-05
4.36647e-05
4.24379e-05
4.28633e-05
4.50089e-05
4.98358e-05
5.91486e-05
)
;
    }
    lowerWall
    {
        type            nutkWallFunction;
        blending        stepwise;
        Cmu             0.09;
        kappa           0.41;
        E               9.8;
        value           nonuniform List<scalar> 
62
(
4.61518e-06
5.66639e-06
6.53234e-06
7.10415e-06
7.50618e-06
7.81967e-06
8.09712e-06
8.35775e-06
8.60603e-06
8.84017e-06
9.05457e-06
9.24195e-06
9.39613e-06
9.50878e-06
9.55501e-06
9.51086e-06
9.35743e-06
9.09579e-06
8.76988e-06
8.41824e-06
8.09128e-06
7.60118e-06
6.4742e-06
6.4742e-06
1.73825e-05
1.94036e-05
2.12056e-05
2.30667e-05
2.52787e-05
2.8081e-05
3.14223e-05
3.41052e-05
3.59451e-05
3.97469e-05
4.48538e-05
1.61508e-05
4.58316e-05
4.83717e-05
4.88739e-05
4.86557e-05
4.78985e-05
4.65982e-05
4.55839e-05
1.61508e-05
1.65843e-05
1.87703e-05
2.00412e-05
2.06943e-05
2.0825e-05
2.04561e-05
2.0551e-05
2.10762e-05
2.18243e-05
2.27165e-05
2.35653e-05
2.41836e-05
2.42439e-05
2.33943e-05
2.17216e-05
1.9557e-05
1.61281e-05
1.12734e-05
)
;
    }
    atmosphere
    {
        type            calculated;
        value           nonuniform List<scalar> 
46
(
0.000292387
0.0026979
0.00556567
0.00751223
0.009
0.009
0.009
0.009
0.009
0.009
0.009
0.009
0.009
0.009
0.009
0.009
0.009
0.009
0.009
0.009
0.009
0.009
0.009
0.009
0.009
0.009
0.009
0.009
0.009
0.009
0.009
0.009
0.00747523
0.00786417
0.00811278
0.00825092
0.00829855
0.00825539
0.00810812
0.00782999
0.00737326
0.00665689
0.009
0.009
0.009
0.000483668
)
;
    }
    defaultFaces
    {
        type            empty;
    }
}


// ************************************************************************* //
