/*--------------------------------*- C++ -*----------------------------------*\
| =========                 |                                                 |
| \\      /  F ield         | OpenFOAM: The Open Source CFD Toolbox           |
|  \\    /   O peration     | Version:  v2012                                 |
|   \\  /    A nd           | Website:  www.openfoam.com                      |
|    \\/     M anipulation  |                                                 |
\*---------------------------------------------------------------------------*/
FoamFile
{
    version     2.0;
    format      ascii;
    class       volScalarField;
    location    "0.75";
    object      p;
}
// * * * * * * * * * * * * * * * * * * * * * * * * * * * * * * * * * * * * * //

dimensions      [1 -1 -2 0 0 0 0];


internalField   nonuniform List<scalar> 
2268
(
586.281
584.173
586.347
592.502
601.852
613.425
626.654
641.124
656.512
672.564
689.059
705.792
722.584
739.289
755.724
771.637
786.786
800.934
813.075
822.256
828.454
832.342
832.904
527.292
524.618
526.784
533.236
542.871
554.64
568.007
582.552
597.953
613.964
630.383
647.026
663.717
680.334
696.701
712.616
727.833
742.122
755.065
764.962
770.347
771.801
770.928
466.066
463.947
466.938
473.84
483.736
495.725
509.283
523.964
539.431
555.449
571.824
588.384
604.983
621.477
637.753
653.624
668.839
683.1
695.966
706.217
711.588
711.479
708.665
403.28
402.268
406.46
413.956
424.202
436.464
450.263
465.135
480.727
496.818
513.217
529.756
546.3
562.736
578.964
594.805
610.006
624.226
636.919
646.959
652.435
651.573
646.324
339.659
339.885
345.339
353.505
364.172
376.766
390.869
405.998
421.781
438.015
454.509
471.094
487.641
504.075
520.315
536.177
551.401
565.665
578.375
588.422
594.13
593.082
584.101
275.463
276.945
283.626
292.501
303.629
316.606
331.089
346.556
362.594
379.04
395.699
412.388
428.987
445.465
461.78
477.723
493.026
507.439
520.387
530.778
537.478
537.064
520.639
210.728
213.344
221.178
230.797
242.428
255.88
270.884
286.819
303.194
319.918
336.801
353.644
370.327
386.885
403.333
419.416
434.852
449.512
462.898
474.098
482.984
483.401
452.921
145.3
148.713
157.239
167.51
179.749
193.96
209.891
226.656
243.541
260.661
277.848
294.884
311.655
328.299
344.911
361.179
376.796
391.776
405.784
418.405
430.331
430.925
387.835
1137.7
1030.92
795.471
597.844
599.16
703.738
759.708
745.083
712.187
697.994
725.005
818.184
971.955
1125.65
1209.16
1231.8
1218.6
1171.41
1144.94
1129.66
951.901
652.286
441.312
482.127
640.353
713.771
694.819
650.333
624.417
643.195
721.417
860.273
1010.21
1098.96
1133.89
1133.56
1100.09
1085.45
1142.94
785.768
421.529
286.712
384.68
590.312
684.065
650.662
591.306
555.37
559.835
620.517
744.593
894.182
986.615
1032.47
1052.04
1039.26
1024.9
1065.73
566.216
272.231
221.979
347.328
589.787
683.351
609.013
526.996
479.116
471.763
517.565
632.899
791.007
885.199
935.914
973.796
982.076
966.595
904.505
392.326
211.667
198.957
324.283
602.542
672.57
556.881
446.476
395.461
389.492
422.867
527.136
697.046
790.785
841.965
894.766
921.283
907.552
727.698
302.704
192.49
193.207
300.782
541.46
615.158
497.448
380.317
346.879
353.322
374.547
447.843
612.675
699.697
746.973
814.925
856.77
847.187
590.74
278.128
196.845
193.501
272.646
438.459
485.248
415.531
351.263
335.061
345.978
364.661
411.135
543.589
608.843
647.394
733.26
790.857
785.318
517.898
307.838
215.394
188.425
224.452
303.546
317.034
311.452
316.888
330.674
343.719
361.37
392.269
484.969
510.967
540.891
648.78
722.294
719.614
55.4944
59.4925
66.727
75.3898
85.9304
98.7806
113.959
131.056
149.269
167.498
185.495
202.997
219.91
236.652
253.57
270.189
286.086
301.57
316.81
332.304
348.009
352.663
339.703
2.77719
3.74456
5.47069
7.8307
11.2125
15.9428
22.2357
30.6865
42.0619
54.7325
68.0812
81.7895
96.2029
112.397
130.272
147.683
163.289
178.745
195.343
213.753
233.588
251.279
273.474
-0.0802513
-0.0887158
-0.059321
-0.0415338
-0.0558182
-0.0838113
-0.0901548
0.0644181
1.17242
3.47756
6.81824
11.1618
16.8709
24.7518
34.61
44.1086
52.4855
64.3695
78.5043
95.4549
116.224
139.856
167.691
-0.24994
-0.262153
-0.275146
-0.288644
-0.300111
-0.307797
-0.306102
-0.296766
-0.309436
-0.36229
-0.401422
-0.405975
-0.410609
-0.418129
-0.408096
-0.321667
0.726648
5.26287
10.6296
16.9607
25.8961
39.9776
60.9265
-0.405163
-0.408693
-0.411152
-0.415606
-0.422582
-0.430583
-0.438127
-0.451056
-0.478765
-0.50405
-0.510594
-0.504054
-0.489714
-0.469073
-0.444483
-0.409861
-0.375592
-0.405609
-0.358512
-0.23706
-0.0534995
0.433916
4.46814
-0.558056
-0.558486
-0.557617
-0.558417
-0.562355
-0.568611
-0.575851
-0.585808
-0.601933
-0.615754
-0.621078
-0.61824
-0.60935
-0.595804
-0.570744
-0.535597
-0.499695
-0.460364
-0.408292
-0.341611
-0.264082
-0.163315
0.143574
-0.70953
-0.709276
-0.70894
-0.709705
-0.712171
-0.716013
-0.720517
-0.725812
-0.732958
-0.739518
-0.741951
-0.73845
-0.729058
-0.713602
-0.690004
-0.658497
-0.623027
-0.582444
-0.52544
-0.445135
-0.348458
-0.271774
-0.200058
-0.859431
-0.858745
-0.85835
-0.858845
-0.860319
-0.86253
-0.865095
-0.86785
-0.870827
-0.872801
-0.87175
-0.866214
-0.855617
-0.839499
-0.81717
-0.78848
-0.754583
-0.714623
-0.662379
-0.594532
-0.513727
-0.441686
-0.404976
-1.00864
-1.00758
-1.00687
-1.00687
-1.00751
-1.00854
-1.00968
-1.01068
-1.01128
-1.01064
-1.00754
-1.00098
-0.990326
-0.975079
-0.954792
-0.929368
-0.899214
-0.863949
-0.821813
-0.773178
-0.721901
-0.680538
-0.668526
-1.15715
-1.156
-1.15512
-1.15475
-1.15476
-1.15492
-1.15498
-1.15472
-1.15385
-1.15181
-1.14785
-1.14128
-1.13151
-1.11811
-1.1008
-1.07961
-1.05502
-1.02737
-0.997042
-0.966122
-0.93948
-0.927007
-0.939577
-1.30502
-1.30398
-1.30306
-1.30245
-1.30204
-1.30161
-1.30097
-1.29994
-1.29828
-1.29567
-1.29165
-1.28573
-1.27747
-1.26654
-1.25279
-1.23646
-1.21822
-1.19903
-1.18026
-1.16461
-1.15691
-1.16576
-1.20002
-1.45237
-1.45151
-1.45064
-1.44992
-1.44925
-1.44848
-1.44746
-1.44606
-1.44414
-1.44153
-1.43796
-1.43315
-1.42679
-1.41865
-1.40873
-1.39741
-1.38554
-1.37446
-1.36604
-1.36318
-1.37031
-1.39509
-1.44534
-1.59924
-1.5986
-1.59784
-1.5971
-1.59634
-1.59544
-1.59429
-1.59283
-1.59099
-1.58873
-1.58596
-1.58252
-1.57824
-1.573
-1.56688
-1.56036
-1.55442
-1.5506
-1.55092
-1.55826
-1.57654
-1.61237
-1.67246
-1.74569
-1.74524
-1.74463
-1.74397
-1.74326
-1.74239
-1.74131
-1.73999
-1.73846
-1.73676
-1.73494
-1.73298
-1.73081
-1.72838
-1.72584
-1.72369
-1.72299
-1.72531
-1.73271
-1.74783
-1.77406
-1.81672
-1.88159
-1.89173
-1.89144
-1.891
-1.89049
-1.88992
-1.88923
-1.88836
-1.88732
-1.88622
-1.88518
-1.88436
-1.88385
-1.88368
-1.88387
-1.88455
-1.88624
-1.88996
-1.89727
-1.91011
-1.93086
-1.9624
-2.00871
-2.07454
-2.03737
-2.0372
-2.03693
-2.03662
-2.03628
-2.03585
-2.03529
-2.03464
-2.03404
-2.03368
-2.03381
-2.03464
-2.03626
-2.03875
-2.04224
-2.04718
-2.05452
-2.06569
-2.08252
-2.10709
-2.14178
-2.18952
-2.25392
-2.18261
-2.18254
-2.18243
-2.18234
-2.18228
-2.18218
-2.182
-2.1818
-2.18172
-2.18202
-2.18301
-2.18498
-2.18813
-2.19255
-2.19839
-2.20599
-2.21617
-2.23022
-2.24979
-2.2767
-2.31289
-2.36044
-2.422
-2.32745
-2.32745
-2.32749
-2.32764
-2.32788
-2.32814
-2.32839
-2.32866
-2.32912
-2.33003
-2.33176
-2.33466
-2.33901
-2.34498
-2.35267
-2.36237
-2.3747
-2.39078
-2.41205
-2.44014
-2.47661
-2.52294
-2.581
-2.47188
-2.47193
-2.47211
-2.47249
-2.47303
-2.47367
-2.47436
-2.47512
-2.4761
-2.47757
-2.47991
-2.48353
-2.48878
-2.49588
-2.50496
-2.51621
-2.53009
-2.54751
-2.56968
-2.59804
-2.63392
-2.67836
-2.73273
-2.61588
-2.61596
-2.61625
-2.61684
-2.61768
-2.61869
-2.61981
-2.62106
-2.62255
-2.62453
-2.62737
-2.63152
-2.63737
-2.64522
-2.65522
-2.66753
-2.68246
-2.70066
-2.72315
-2.75115
-2.78582
-2.82794
-2.87857
-2.75939
-2.7595
-2.7599
-2.76067
-2.76178
-2.76314
-2.76467
-2.76639
-2.76836
-2.77081
-2.77407
-2.77859
-2.78479
-2.79303
-2.80354
-2.81646
-2.83198
-2.85055
-2.87296
-2.9002
-2.93327
-2.97282
-3.01973
-2.9024
-2.90253
-2.903
-2.90394
-2.90528
-2.90694
-2.90886
-2.91101
-2.91345
-2.91633
-2.91995
-2.92471
-2.93107
-2.93942
-2.95006
-2.96314
-2.97883
-2.99743
-3.01946
-3.04573
-3.07703
-3.11394
-3.15721
-3.04486
-3.045
-3.04553
-3.04659
-3.04813
-3.05006
-3.05232
-3.05486
-3.05772
-3.061
-3.06495
-3.0699
-3.07628
-3.08453
-3.09497
-3.10784
-3.12329
-3.14154
-3.16295
-3.18809
-3.21759
-3.25189
-3.29171
-3.18675
-3.18689
-3.18746
-3.18862
-3.19031
-3.19245
-3.19499
-3.19788
-3.20112
-3.20477
-3.20901
-3.21412
-3.22048
-3.22849
-3.23853
-3.25088
-3.26573
-3.28328
-3.30378
-3.32764
-3.3553
-3.38711
-3.42371
-3.32805
-3.32819
-3.32879
-3.33002
-3.33181
-3.33411
-3.33686
-3.34003
-3.34358
-3.34756
-3.35208
-3.35734
-3.36367
-3.37142
-3.38096
-3.3926
-3.40659
-3.42313
-3.44245
-3.46483
-3.49061
-3.52001
-3.5536
-3.46875
-3.46889
-3.46951
-3.47077
-3.47263
-3.47503
-3.47793
-3.4813
-3.4851
-3.48935
-3.4941
-3.49952
-3.50583
-3.51333
-3.52237
-3.53325
-3.54625
-3.5616
-3.57952
-3.60027
-3.62408
-3.65111
-3.68185
-3.60886
-3.60899
-3.60962
-3.61089
-3.61277
-3.61523
-3.61821
-3.62171
-3.62567
-3.63011
-3.63505
-3.64059
-3.64689
-3.6542
-3.66278
-3.67294
-3.68494
-3.69905
-3.71549
-3.73451
-3.7563
-3.78099
-3.809
-3.7484
-3.74852
-3.74914
-3.7504
-3.75228
-3.75473
-3.75774
-3.76128
-3.76533
-3.76987
-3.77492
-3.78053
-3.78681
-3.79394
-3.80214
-3.81165
-3.82273
-3.83565
-3.85063
-3.86793
-3.88772
-3.91012
-3.93552
-3.88737
-3.88749
-3.8881
-3.88933
-3.89116
-3.89358
-3.89656
-3.90008
-3.90413
-3.90868
-3.91374
-3.91935
-3.92557
-3.93253
-3.94038
-3.94932
-3.95959
-3.97141
-3.98503
-4.00069
-4.01857
-4.03878
-4.0617
-4.0258
-4.02592
-4.0265
-4.02769
-4.02946
-4.03181
-4.03471
-4.03815
-4.04212
-4.0466
-4.05159
-4.05711
-4.0632
-4.06994
-4.07745
-4.08588
-4.09541
-4.10625
-4.11863
-4.13277
-4.14886
-4.16702
-4.18761
-4.16372
-4.16383
-4.16439
-4.16552
-4.16722
-4.16946
-4.17224
-4.17555
-4.17938
-4.18371
-4.18855
-4.19389
-4.19977
-4.20624
-4.21338
-4.2213
-4.23015
-4.24009
-4.25134
-4.26409
-4.27852
-4.29477
-4.31318
-4.30117
-4.30127
-4.30179
-4.30287
-4.30447
-4.30659
-4.30922
-4.31236
-4.31599
-4.32011
-4.3247
-4.32979
-4.33537
-4.3415
-4.34822
-4.35562
-4.36379
-4.3729
-4.38309
-4.39456
-4.40747
-4.42195
-4.43831
-4.43817
-4.43826
-4.43876
-4.43976
-4.44126
-4.44324
-4.44569
-4.44862
-4.45201
-4.45586
-4.46016
-4.46492
-4.47014
-4.47585
-4.4821
-4.48893
-4.49643
-4.50471
-4.51391
-4.52418
-4.53567
-4.54849
-4.56293
-4.57477
-4.57486
-4.57533
-4.57626
-4.57764
-4.57946
-4.58171
-4.58441
-4.58752
-4.59106
-4.59501
-4.59938
-4.60418
-4.60942
-4.61513
-4.62136
-4.62816
-4.63562
-4.64385
-4.65298
-4.66313
-4.67439
-4.68702
-4.71102
-4.71112
-4.71156
-4.71241
-4.71365
-4.7153
-4.71733
-4.71977
-4.72258
-4.72577
-4.72934
-4.73328
-4.7376
-4.74232
-4.74746
-4.75304
-4.75911
-4.76575
-4.77303
-4.78106
-4.78994
-4.79972
-4.81065
-4.84696
-4.8471
-4.84751
-4.84826
-4.84935
-4.8508
-4.8526
-4.85475
-4.85724
-4.86006
-4.86321
-4.86669
-4.87051
-4.87467
-4.8792
-4.88411
-4.88944
-4.89524
-4.90158
-4.90854
-4.91619
-4.92458
-4.9339
-4.98266
-4.98285
-4.98324
-4.98388
-4.9848
-4.98603
-4.98757
-4.98942
-4.99156
-4.99398
-4.9967
-4.9997
-5.00299
-5.00657
-5.01047
-5.01469
-5.01926
-5.02422
-5.02963
-5.03555
-5.04202
-5.04908
-5.05687
-5.11816
-5.11848
-5.11885
-5.11934
-5.12005
-5.12103
-5.12229
-5.12381
-5.12558
-5.1276
-5.12986
-5.13237
-5.13512
-5.13811
-5.14136
-5.14488
-5.14869
-5.15281
-5.1573
-5.16219
-5.16753
-5.17332
-5.17967
-5.25358
-5.25406
-5.25444
-5.2547
-5.25514
-5.25583
-5.25677
-5.25794
-5.25934
-5.26094
-5.26275
-5.26476
-5.26696
-5.26936
-5.27197
-5.27478
-5.27783
-5.28112
-5.2847
-5.28859
-5.29281
-5.29739
-5.30237
-5.38907
-5.38978
-5.39014
-5.38995
-5.38995
-5.39028
-5.39089
-5.39172
-5.39274
-5.39394
-5.3953
-5.39681
-5.39848
-5.4003
-5.40228
-5.40441
-5.40671
-5.4092
-5.41189
-5.41481
-5.41797
-5.42136
-5.42504
-5.52475
-5.52568
-5.52604
-5.52494
-5.52429
-5.52427
-5.52458
-5.52511
-5.52579
-5.5266
-5.52754
-5.52858
-5.52973
-5.53099
-5.53236
-5.53383
-5.53542
-5.53712
-5.53896
-5.54094
-5.54306
-5.54531
-5.54772
-5.66061
-5.66138
-5.66187
-5.66094
-5.65996
-5.65976
-5.65984
-5.66006
-5.66036
-5.66072
-5.66113
-5.6616
-5.66211
-5.66268
-5.6633
-5.66398
-5.6647
-5.66548
-5.66632
-5.6672
-5.66812
-5.66908
-5.67005
364.822
359.595
327.057
297.802
312.88
349.515
405.088
459.39
196.429
220.49
258.348
312.162
81.1789
103.07
136.432
168.852
10.1109
18.9763
39.6207
70.2864
1.31701
2.81646
6.30365
17.6596
-0.0157041
0.140207
0.645776
2.45465
-0.384156
-0.353645
-0.275342
-0.217138
-0.686305
-0.691689
-0.701988
-0.901712
-0.967763
-0.978314
-1.00371
-1.15107
-1.24839
-1.2734
-1.29704
-1.3655
-1.50756
-1.54586
-1.58346
-1.63278
-1.73892
-1.78346
-1.83116
-1.88827
-1.95055
-1.99846
-2.04969
-2.11197
-2.14387
-2.19463
-2.24739
-2.30625
-2.32157
-2.3737
-2.42926
-2.48644
-2.4862
-2.53724
-2.5933
-2.64995
-2.6409
-2.68915
-2.74285
-2.79697
-2.78825
-2.83311
-2.8831
-2.93323
-2.92993
-2.97142
-3.01748
-3.06329
-3.0671
-3.10534
-3.14761
-3.18936
-3.20071
-3.23581
-3.27452
-3.31259
-3.33156
-3.3637
-3.39914
-3.43391
-3.46022
-3.48969
-3.52218
-3.55402
-3.58708
-3.61417
-3.64405
-3.67329
-3.71254
-3.73746
-3.765
-3.79193
-3.83705
-3.85994
-3.88531
-3.91012
-3.96104
-3.98197
-4.00524
-4.02803
-4.0848
-4.1038
-4.125
-4.14582
-4.20841
-4.22553
-4.2447
-4.26358
-4.33179
-4.34712
-4.3643
-4.38128
-4.45484
-4.46845
-4.48374
-4.49888
-4.57748
-4.58945
-4.60293
-4.61632
-4.6997
-4.71012
-4.72188
-4.73358
-4.82155
-4.83051
-4.84063
-4.85071
-4.94312
-4.95071
-4.95927
-4.9678
-5.06453
-5.07082
-5.07791
-5.08498
-5.18586
-5.19094
-5.19666
-5.20233
-5.30719
-5.31113
-5.31555
-5.31993
-5.42853
-5.43138
-5.43458
-5.43775
-5.54997
-5.55179
-5.5538
-5.55577
-5.6709
-5.67157
-5.6723
-5.673
460.612
367.472
228.787
145.886
116.347
89.0912
87.8403
133.128
224.952
312.893
343.181
357.611
365.457
403.703
391.294
410.709
514.079
609.432
614.493
511.831
359.047
167.576
65.0366
47.5284
39.0304
40.6762
48.6662
91.0205
242.954
343.843
358.546
328.239
323.156
313.431
319.151
361.422
456.548
476.224
365.893
201.878
55.7387
37.0369
37.7831
37.8715
38.2323
40.0401
47.0596
146.136
343.76
343.119
285.692
267.122
264.487
263.863
266.023
313.075
340.821
195.114
79.4546
29.2767
37.0845
37.6125
37.2704
37.5608
38.4464
39.5289
95.8473
277.313
282.181
239.312
216.803
220.101
217.488
204.937
212.073
227.286
99.3079
44.6298
36.9363
37.2569
37.1165
36.7358
37.005
37.4168
36.5999
70.7748
174.87
187.808
189.223
175.379
176.387
174.769
171.009
171.414
162.739
41.392
37.128
37.719
37.3499
36.932
36.4074
36.5282
36.7901
34.5806
47.9666
87.8315
117.545
147.405
142.477
134.537
135.815
147.709
145.476
125.202
8.93932
20.9783
36.942
38.163
37.7023
36.9379
36.558
36.1908
35.8415
41.1533
50.7813
83.6484
110.294
106.946
91.38
96.4215
116.028
116.914
105.316
-0.721384
5.11675
31.4713
40.1944
39.7366
38.7788
37.7974
36.5543
36.4069
39.4972
46.3253
59.4528
70.2077
68.2026
50.7926
55.6292
73.0188
86.1187
85.1389
-2.22386
-4.24184
15.5964
38.2564
40.7043
39.6299
37.9635
36.8009
36.3807
35.4089
29.5096
32.7266
35.6804
35.2743
25.0047
22.4152
31.5759
57.0281
66.3907
-1.84755
-6.1236
-0.662444
25.4285
38.4722
39.1603
37.983
37.2498
36.3768
34.1696
7.26195
19.2743
15.1374
13.177
10.1825
8.80504
13.1743
31.2792
49.906
-1.70467
-3.2609
-7.88876
2.3275
29.2358
38.0003
37.8319
37.0369
34.5751
5.8415
-1.71475
20.012
5.07033
1.33335
2.90968
3.53297
6.76178
13.5441
34.1806
-1.7874
-2.0747
-2.07567
-8.43328
2.1923
23.2523
36.7553
30.2866
-3.31334
-12.613
8.05794
2.89706
-0.777462
-2.24234
-0.360939
0.474911
1.64962
3.25312
21.2293
-1.99221
-2.14984
-2.78228
-5.87412
-11.7515
-12.3314
-8.3177
-15.919
-13.9443
-1.52659
-2.23345
-2.21987
-2.75002
-2.7952
-1.74614
-1.2877
-1.50753
-1.17419
11.675
-2.23032
-2.39345
-2.4712
-2.97075
-4.10045
-5.7621
-7.9638
-6.47101
-4.52655
-3.71471
-3.03689
-2.83336
-2.90381
-2.93448
-2.49192
-2.33131
-2.80147
-2.99964
5.62603
-2.41539
-2.57996
-2.66743
-2.74655
-3.3936
-4.73348
-4.74366
-4.38642
-3.58487
-3.19836
-3.12713
-3.0106
-3.04949
-3.0695
-2.96006
-2.94842
-3.28494
-3.71754
1.40116
-2.58368
-2.74262
-2.9097
-3.07918
-3.34047
-3.56466
-3.54974
-3.46024
-3.32716
-3.26785
-3.18667
-3.13771
-3.22115
-3.30292
-3.33532
-3.38971
-3.58797
-3.98357
-0.643839
-2.73977
-2.87852
-3.04318
-3.23154
-3.44166
-3.62373
-3.66977
-3.59273
-3.45419
-3.34627
-3.27001
-3.27481
-3.38426
-3.50375
-3.58954
-3.68254
-3.73866
-3.68448
-1.78825
-2.87998
-2.99788
-3.13258
-3.28303
-3.44386
-3.57745
-3.60788
-3.55525
-3.46838
-3.40405
-3.37058
-3.40447
-3.51278
-3.63194
-3.72306
-3.82273
-3.85637
-3.70755
-2.92074
-3.00848
-3.10976
-3.22082
-3.33803
-3.45417
-3.54569
-3.57829
-3.56007
-3.51618
-3.4812
-3.47389
-3.51328
-3.59976
-3.69311
-3.76427
-3.83709
-3.87646
-3.75476
-3.56822
-3.13079
-3.2183
-3.31192
-3.40717
-3.49602
-3.56464
-3.59809
-3.59832
-3.58008
-3.5647
-3.5671
-3.5975
-3.65399
-3.71106
-3.74985
-3.784
-3.79561
-3.74334
-3.6392
-3.2499
-3.32589
-3.40537
-3.48442
-3.55609
-3.61179
-3.64399
-3.65341
-3.64907
-3.64388
-3.64728
-3.66417
-3.69151
-3.71327
-3.71954
-3.72076
-3.6962
-3.69832
-3.66972
-3.36714
-3.43365
-3.50166
-3.56799
-3.6272
-3.67377
-3.70361
-3.71717
-3.71974
-3.71883
-3.71973
-3.72395
-3.72761
-3.72067
-3.69968
-3.67622
-3.63215
-3.6557
-3.68472
-3.4833
-3.54197
-3.60071
-3.65697
-3.70655
-3.74592
-3.77281
-3.78753
-3.79304
-3.79342
-3.79117
-3.78581
-3.77303
-3.74578
-3.70379
-3.65835
-3.593
-3.57341
-3.66704
-3.59889
-3.65099
-3.70213
-3.75024
-3.79214
-3.82557
-3.84938
-3.86378
-3.87032
-3.87096
-3.86655
-3.85575
-3.83427
-3.79626
-3.74159
-3.67624
-3.56844
-3.51889
-3.60531
-3.71419
-3.76071
-3.80551
-3.84691
-3.88251
-3.91095
-3.93179
-3.94532
-3.95227
-3.95337
-3.94867
-3.93684
-3.9144
-3.8766
-3.82169
-3.74383
-3.57811
-3.56264
-3.52422
-3.82933
-3.87106
-3.91054
-3.94639
-3.97675
-4.00095
-4.0191
-4.03165
-4.03897
-4.04117
-4.03811
-4.02915
-4.01255
-3.98588
-3.94777
-3.88329
-3.72416
-3.77443
-3.54953
-3.94439
-3.98196
-4.01698
-4.04824
-4.07428
-4.09488
-4.11059
-4.12214
-4.12984
-4.1336
-4.13344
-4.1298
-4.1232
-4.11452
-4.10469
-4.08412
-4.05286
-4.17167
-4.0721
-4.05941
-4.09335
-4.12462
-4.15211
-4.17463
-4.19218
-4.20569
-4.21615
-4.22398
-4.22915
-4.23196
-4.2338
-4.23703
-4.24518
-4.26271
-4.29205
-4.41519
-4.38504
-3.94269
-4.17446
-4.20515
-4.23324
-4.25765
-4.2773
-4.29233
-4.30384
-4.31305
-4.32055
-4.32639
-4.33104
-4.33629
-4.34512
-4.36155
-4.39117
-4.44018
-4.56881
-4.5925
-3.98796
-4.28955
-4.31727
-4.34259
-4.36444
-4.38176
-4.39472
-4.40445
-4.4123
-4.41897
-4.42451
-4.42934
-4.43505
-4.44415
-4.45931
-4.48334
-4.51535
-4.56614
-4.59719
-4.36919
-4.40466
-4.42962
-4.45246
-4.4721
-4.48749
-4.4987
-4.50685
-4.51332
-4.51882
-4.52335
-4.52706
-4.53101
-4.53685
-4.54604
-4.5591
-4.5708
-4.56969
-4.59146
-4.48672
-4.51976
-4.54211
-4.56264
-4.58031
-4.59402
-4.60372
-4.61043
-4.61551
-4.61969
-4.62287
-4.62489
-4.62624
-4.62782
-4.63055
-4.63441
-4.63369
-4.61173
-4.62776
-4.53976
-4.6348
-4.65466
-4.67301
-4.68886
-4.70108
-4.70945
-4.71483
-4.71849
-4.72119
-4.72287
-4.72319
-4.72211
-4.71998
-4.71738
-4.71462
-4.7081
-4.68432
-4.68652
-4.52037
-4.74977
-4.76722
-4.78348
-4.79762
-4.80851
-4.81577
-4.81999
-4.82227
-4.82337
-4.82344
-4.82219
-4.81921
-4.81435
-4.80763
-4.79967
-4.79015
-4.77319
-4.77762
-4.85969
-4.86469
-4.87982
-4.89403
-4.90653
-4.91624
-4.92262
-4.926
-4.92725
-4.92691
-4.92562
-4.92298
-4.91842
-4.91144
-4.90129
-4.88789
-4.87234
-4.85049
-4.82369
-4.73859
-4.97966
-4.99252
-5.00471
-5.0156
-5.02422
-5.02992
-5.03281
-5.03353
-5.03261
-5.03044
-5.02683
-5.02114
-5.01265
-4.99979
-4.9832
-4.96553
-4.93659
-4.88082
-4.6678
-5.0948
-5.10543
-5.11561
-5.12489
-5.13246
-5.13758
-5.14016
-5.14075
-5.13998
-5.13754
-5.13351
-5.12772
-5.11903
-5.10626
-5.09156
-5.07858
-5.05044
-5.00254
-4.78987
-5.21022
-5.2187
-5.2269
-5.23458
-5.24112
-5.24564
-5.2479
-5.24845
-5.24772
-5.24567
-5.24195
-5.23663
-5.22955
-5.22108
-5.21173
-5.20336
-5.18527
-5.16138
-4.99031
-5.326
-5.33242
-5.33868
-5.3448
-5.35045
-5.35435
-5.35611
-5.35654
-5.35587
-5.35401
-5.35068
-5.3459
-5.34065
-5.33638
-5.33233
-5.327
-5.32113
-5.31679
-5.17899
-5.44214
-5.44664
-5.45105
-5.45574
-5.46103
-5.46484
-5.46571
-5.4658
-5.46514
-5.46325
-5.45982
-5.45494
-5.44924
-5.44375
-5.43846
-5.43785
-5.44743
-5.45226
-5.37403
-5.5585
-5.56121
-5.56397
-5.56782
-5.57468
-5.57968
-5.5789
-5.57823
-5.57736
-5.57521
-5.57119
-5.565
-5.55637
-5.54416
-5.52769
-5.53139
-5.5733
-5.63084
-5.69766
-5.67399
-5.67494
-5.67619
-5.67978
-5.69189
-5.69374
-5.69074
-5.6895
-5.68867
-5.68682
-5.68318
-5.67713
-5.66764
-5.65077
-5.61955
-5.61889
-5.7312
-6.03108
-6.47591
)
;

boundaryField
{
    leftWall
    {
        type            calculated;
        value           nonuniform List<scalar> 
50
(
586.281
527.292
466.066
403.28
339.659
275.463
210.728
145.3
55.4944
2.77719
-0.0802513
-0.24994
-0.405163
-0.558056
-0.70953
-0.859431
-1.00864
-1.15715
-1.30502
-1.45237
-1.59924
-1.74569
-1.89173
-2.03737
-2.18261
-2.32745
-2.47188
-2.61588
-2.75939
-2.9024
-3.04486
-3.18675
-3.32805
-3.46875
-3.60886
-3.7484
-3.88737
-4.0258
-4.16372
-4.30117
-4.43817
-4.57477
-4.71102
-4.84696
-4.98266
-5.11816
-5.25358
-5.38907
-5.52475
-5.66061
)
;
    }
    rightWall
    {
        type            calculated;
        value           nonuniform List<scalar> 
50
(
1144.94
1085.45
1024.9
966.595
907.552
847.187
785.318
719.614
614.493
476.224
340.821
227.286
162.739
125.202
105.316
85.1389
66.3907
49.906
34.1806
21.2293
11.675
5.62603
1.40116
-0.643839
-1.78825
-2.92074
-3.56822
-3.6392
-3.66972
-3.68472
-3.66704
-3.60531
-3.52422
-3.54953
-4.0721
-3.94269
-3.98796
-4.36919
-4.48672
-4.53976
-4.52037
-4.85969
-4.73859
-4.6678
-4.78987
-4.99031
-5.17899
-5.37403
-5.69766
-6.47591
)
;
    }
    lowerWall
    {
        type            calculated;
        value           nonuniform List<scalar> 
62
(
615.71
613.603
615.776
621.932
631.281
642.855
656.084
670.553
685.942
701.993
718.488
735.221
752.013
768.719
785.153
801.066
816.216
830.362
841.923
850.326
856.521
860.917
862.323
832.904
770.928
708.665
646.324
584.101
520.639
452.921
387.835
427.41
422.027
381.487
344.331
1137.7
1129.66
1142.94
1065.73
904.505
727.698
590.74
517.898
1146.69
1057.32
824.707
627.061
628.204
732.779
788.753
774.168
741.527
727.351
754.362
847.204
1000.59
1154.27
1237.67
1259.62
1246.82
1199.77
1172.64
)
;
    }
    atmosphere
    {
        type            calculated;
        value           nonuniform List<scalar> 
46
(
-5.72904
-5.72904
-5.72904
-5.72904
-5.72905
-5.72906
-5.72908
-5.72912
-5.72916
-5.7292
-5.72926
-5.72933
-5.72942
-5.72952
-5.72964
-5.72978
-5.72994
-5.73012
-5.73031
-5.73051
-5.73069
-5.73083
-5.73091
-5.7309
-5.73089
-5.73087
-5.73084
-5.73075
-5.73039
-5.72989
-5.72939
-5.72906
-5.72904
-5.72904
-5.72904
-5.72904
-5.72904
-5.72904
-5.72904
-5.72904
-5.72905
-5.72904
-5.72969
-5.76444
-5.87397
-7.2039
)
;
    }
    defaultFaces
    {
        type            empty;
    }
}


// ************************************************************************* //
