/*--------------------------------*- C++ -*----------------------------------*\
| =========                 |                                                 |
| \\      /  F ield         | OpenFOAM: The Open Source CFD Toolbox           |
|  \\    /   O peration     | Version:  v2012                                 |
|   \\  /    A nd           | Website:  www.openfoam.com                      |
|    \\/     M anipulation  |                                                 |
\*---------------------------------------------------------------------------*/
FoamFile
{
    version     2.0;
    format      ascii;
    class       volScalarField;
    location    "0.75";
    object      p_rgh;
}
// * * * * * * * * * * * * * * * * * * * * * * * * * * * * * * * * * * * * * //

dimensions      [1 -1 -2 0 0 0 0];


internalField   nonuniform List<scalar> 
2268
(
615.71
613.603
615.776
621.932
631.281
642.855
656.084
670.553
685.942
701.993
718.488
735.221
752.013
768.719
785.153
801.066
816.216
830.362
841.923
850.326
856.521
860.917
862.323
615.58
612.907
615.073
621.524
631.159
642.928
656.295
670.84
686.241
702.252
718.671
735.314
752.005
768.622
784.989
800.905
816.121
830.41
843.067
850.536
854.576
856.464
859.184
613.213
611.094
614.085
620.987
630.883
642.872
656.43
671.111
686.578
702.596
718.971
735.531
752.129
768.623
784.9
800.771
815.985
830.247
843.113
853.124
856.674
856.067
855.759
609.286
608.274
612.466
619.961
630.207
642.47
656.269
671.141
686.733
702.823
719.222
735.761
752.305
768.742
784.97
800.811
816.011
830.232
842.924
852.964
858.44
857.579
852.255
604.524
604.749
610.204
618.369
629.036
641.63
655.733
670.863
686.645
702.879
719.374
735.958
752.506
768.939
785.179
801.041
816.266
830.529
843.239
853.287
858.995
857.945
848.912
599.186
600.668
607.349
616.224
627.352
640.329
654.812
670.279
686.317
702.763
719.422
736.111
752.71
769.188
785.503
801.446
816.749
831.162
844.11
854.501
861.201
860.766
844.234
593.309
595.926
603.759
613.378
625.01
638.462
653.466
669.4
685.776
702.5
719.383
736.225
752.909
769.467
785.915
801.998
817.434
832.093
845.479
856.68
865.565
865.95
835.351
586.741
590.153
598.679
608.95
621.189
635.4
651.332
668.096
684.981
702.101
719.288
736.324
753.096
769.739
786.351
802.62
818.237
833.216
847.225
859.845
871.771
872.342
829.185
1146.69
1057.32
824.707
627.061
628.204
732.779
788.753
774.168
741.527
727.351
754.362
847.204
1000.59
1154.27
1237.67
1259.62
1246.82
1199.77
1172.64
1196.01
1039.14
740.019
529.123
570.109
728.424
801.843
782.892
738.406
712.49
731.266
809.487
948.339
1098.25
1186.66
1216.97
1215.04
1182.86
1171.55
1284.45
930.823
561
398.245
509.519
730.687
830.852
797.449
738.093
702.157
706.622
767.293
891.341
1040.88
1133.27
1178.41
1187.86
1171.69
1162.53
1261.92
744.955
330.471
256.467
389.011
697.947
876.108
814.517
732.499
684.556
677.246
723.002
838.297
996.331
1090.47
1141.11
1178.9
1167.3
1149.11
1151.73
593.439
254.168
240.92
444.53
784.825
797.37
756.965
676.48
623.012
621.287
679.249
790.879
960.974
1054.62
1105.67
1158.29
1178.07
1142.21
1022.08
511.038
243.778
244.5
488.829
771.591
817.716
567.22
446.105
389.279
410.934
535.652
724.477
934.962
1021.84
1069.07
1136.58
1168.29
1134
932.858
478.05
258.236
258.259
524.381
713.325
759.797
616.898
383.746
366.942
377.256
396.998
552.877
922.503
988.204
1027.13
1112.73
1163.26
1129.07
907.77
397.749
288.714
398.526
559.099
625.107
634.142
629.018
479.525
366.764
379.809
397.46
490.662
907.285
925.035
965.75
1085.41
1155.39
1152.32
462.093
472.851
491.35
518.757
552.961
591.723
632.348
664.523
682.737
700.965
718.962
736.464
753.377
770.12
787.037
803.656
819.553
835.037
850.277
865.77
881.474
886.119
873.15
31.3424
42.1486
59.1841
82.7947
119.311
171.711
241.161
331.107
437.955
536.644
624.573
695.889
742.911
768.897
788.484
806.337
821.942
837.397
853.994
872.404
892.24
909.917
932.011
0.732642
0.743214
0.808362
0.846552
0.843587
0.823518
0.82677
2.44664
17.2876
49.0911
95.081
154.873
235.474
350.396
492.613
618.521
695.377
738.109
785.935
836.614
880.59
919.974
951.279
0.660302
0.649265
0.638809
0.626675
0.615547
0.607861
0.610309
0.620976
0.611254
0.558182
0.515574
0.506475
0.498239
0.490918
0.500954
0.587384
14.3797
91.8567
171.31
253.103
357.037
512.902
669.612
0.629128
0.625659
0.623349
0.618987
0.612027
0.604011
0.596474
0.583637
0.556038
0.530708
0.523951
0.530295
0.544531
0.565173
0.589763
0.624384
0.658653
0.628637
0.675758
0.797674
0.990171
1.78979
55.2865
0.601386
0.600958
0.601835
0.60104
0.597103
0.590846
0.583605
0.573652
0.557531
0.543705
0.538372
0.541203
0.55009
0.563636
0.588696
0.623847
0.659751
0.699078
0.751157
0.817966
0.897278
1.02819
1.54054
0.575105
0.575358
0.575695
0.574929
0.572464
0.568621
0.564117
0.558822
0.551676
0.545116
0.542684
0.546184
0.555576
0.571023
0.59461
0.626115
0.661591
0.70219
0.759196
0.839564
0.937107
1.02271
1.16658
0.550398
0.551084
0.551479
0.550983
0.54951
0.547299
0.544732
0.541976
0.538999
0.537023
0.53807
0.543603
0.554196
0.570307
0.592631
0.62132
0.655221
0.69519
0.747449
0.815316
0.896416
0.971715
1.04089
0.526384
0.527447
0.528157
0.528153
0.527513
0.52648
0.525343
0.524338
0.523737
0.524379
0.527474
0.53403
0.544684
0.559929
0.580215
0.605638
0.635795
0.671065
0.71321
0.761849
0.813193
0.855437
0.87752
0.503069
0.504218
0.505098
0.505469
0.505457
0.505298
0.505233
0.505495
0.50637
0.508408
0.512358
0.518935
0.528701
0.542097
0.559416
0.580601
0.605196
0.632844
0.663175
0.694096
0.720749
0.733399
0.72305
0.480388
0.481433
0.48235
0.482958
0.483373
0.483802
0.484439
0.485476
0.487129
0.489738
0.493761
0.499683
0.507942
0.518875
0.532621
0.54895
0.567188
0.586381
0.605156
0.6208
0.628508
0.619685
0.585789
0.458238
0.459096
0.459963
0.460691
0.461358
0.462126
0.463146
0.464546
0.466463
0.469079
0.472644
0.477459
0.483821
0.491957
0.501876
0.513202
0.525066
0.536147
0.544572
0.54743
0.540295
0.515524
0.465316
0.436558
0.437204
0.437958
0.4387
0.43946
0.440361
0.441507
0.442973
0.444808
0.447068
0.449846
0.453286
0.457562
0.462801
0.468921
0.475445
0.481378
0.485206
0.484878
0.477546
0.459257
0.423432
0.363342
0.415307
0.415758
0.416361
0.417022
0.41774
0.418604
0.419685
0.421005
0.422539
0.424236
0.426059
0.42802
0.430188
0.432611
0.435157
0.437304
0.438004
0.435683
0.428285
0.413171
0.386934
0.344274
0.279408
0.394464
0.394755
0.395191
0.395699
0.396267
0.396963
0.397835
0.398866
0.399969
0.401007
0.40183
0.40234
0.402508
0.402325
0.401642
0.399951
0.396227
0.388923
0.376081
0.35533
0.323792
0.277478
0.211646
0.374019
0.374186
0.374454
0.374763
0.375103
0.375535
0.376094
0.376741
0.377347
0.377703
0.37757
0.376748
0.375122
0.372635
0.369145
0.364202
0.356866
0.345692
0.328866
0.304295
0.269601
0.221868
0.157463
0.353969
0.354044
0.354152
0.354235
0.354296
0.3544
0.354578
0.354782
0.35486
0.354558
0.353567
0.351597
0.348452
0.344026
0.338193
0.330588
0.320406
0.306355
0.286793
0.259883
0.223688
0.176136
0.114577
0.33432
0.334324
0.334283
0.334133
0.333892
0.33363
0.333386
0.333114
0.332658
0.331745
0.330017
0.327114
0.32276
0.316795
0.309101
0.299406
0.28707
0.270992
0.249719
0.221638
0.185159
0.138833
0.0807699
0.315084
0.315037
0.314861
0.314483
0.313935
0.313297
0.312613
0.311852
0.310872
0.3094
0.307058
0.303437
0.298188
0.291089
0.282011
0.270763
0.256874
0.239463
0.217288
0.18893
0.153049
0.10861
0.0542432
0.296287
0.296202
0.295909
0.295319
0.294479
0.293471
0.29235
0.291104
0.289616
0.287635
0.284789
0.280643
0.274792
0.266945
0.256938
0.24463
0.229703
0.211499
0.18901
0.161011
0.126347
0.0842253
0.0335948
0.277964
0.277853
0.277461
0.276683
0.275575
0.274221
0.272684
0.27097
0.268995
0.266547
0.263284
0.258773
0.252571
0.244325
0.233813
0.220902
0.205383
0.186804
0.164398
0.137157
0.104089
0.0645335
0.0176231
0.260151
0.260025
0.259553
0.258617
0.257274
0.25561
0.25369
0.251538
0.249104
0.246224
0.242603
0.23784
0.231483
0.22313
0.212496
0.199411
0.183719
0.165126
0.143088
0.116825
0.0855216
0.0486166
0.00534062
0.242884
0.24275
0.242217
0.241153
0.239617
0.237688
0.235431
0.232883
0.230025
0.226743
0.222802
0.217851
0.211466
0.203221
0.192777
0.179908
0.164453
0.146204
0.124794
0.0996554
0.0701601
0.0358538
-0.00396453
0.22619
0.226054
0.225477
0.224317
0.22263
0.220488
0.21795
0.215061
0.211825
0.208173
0.203934
0.198823
0.192465
0.184451
0.17441
0.162064
0.14721
0.129663
0.109161
0.085305
0.0576407
0.0258276
-0.0107665
0.210086
0.20995
0.209344
0.20812
0.206327
0.204027
0.201271
0.198107
0.194552
0.190574
0.186059
0.180793
0.174468
0.166719
0.15718
0.145539
0.131549
0.115006
0.0956893
0.0733025
0.0475263
0.0181248
-0.0154613
0.194577
0.194444
0.193822
0.192562
0.190705
0.188302
0.185397
0.18203
0.178229
0.173985
0.169229
0.163814
0.157505
0.149997
0.140962
0.130084
0.117085
0.101733
0.0838077
0.063059
0.0392495
0.0122202
-0.018518
0.17966
0.17953
0.178904
0.177633
0.175751
0.173299
0.17031
0.166818
0.162851
0.158416
0.153477
0.147939
0.141634
0.134328
0.125744
0.115589
0.103586
0.0894795
0.0730349
0.0540159
0.0322223
0.00753601
-0.0204755
0.165323
0.165196
0.164576
0.163316
0.161443
0.158989
0.155978
0.152436
0.148388
0.143847
0.138802
0.133193
0.126908
0.119776
0.111579
0.102069
0.0909845
0.0780716
0.0630864
0.0457907
0.0259954
0.00359495
-0.0218047
0.151546
0.151424
0.150818
0.149587
0.147752
0.145337
0.142358
0.138835
0.134789
0.130234
0.12517
0.119564
0.113343
0.106388
0.0985374
0.0895917
0.0793258
0.0675021
0.0538817
0.0382266
0.0203469
0.000131891
-0.0227891
0.138308
0.138191
0.137608
0.13642
0.134645
0.132303
0.129403
0.12596
0.12199
0.117508
0.112517
0.106999
0.100909
0.0941674
0.0866579
0.0782292
0.0686971
0.0578534
0.045477
0.0313389
0.0152498
-0.00291127
-0.0235007
0.12558
0.125472
0.124915
0.123781
0.122084
0.119841
0.117059
0.113748
0.109921
0.105589
0.100757
0.0954152
0.0895363
0.083067
0.0759272
0.0680057
0.0591578
0.0492095
0.0379657
0.025216
0.0107791
-0.00547071
-0.0238763
0.113331
0.113231
0.112704
0.111631
0.110028
0.107907
0.105275
0.102139
0.0985075
0.0943913
0.0897941
0.0847105
0.0791228
0.0729962
0.066276
0.0588819
0.0507031
0.041599
0.0314043
0.019934
0.00702275
-0.00745144
-0.0238123
0.101524
0.10143
0.100933
0.0999283
0.0984309
0.0964523
0.093997
0.0910695
0.0876779
0.0838305
0.0795307
0.0747752
0.0695522
0.0638382
0.0575951
0.0507651
0.0432646
0.0349827
0.0257839
0.0155117
0.00402244
-0.0087942
-0.023235
0.0901159
0.0900229
0.0895556
0.0886261
0.0872473
0.0854285
0.0831715
0.0804806
0.0773633
0.0738269
0.0698747
0.0655048
0.0607081
0.0554675
0.0497557
0.0435307
0.0367301
0.0292678
0.0210353
0.0119043
0.0017555
-0.0095036
-0.0221355
0.079062
0.0789582
0.0785192
0.0776742
0.076428
0.0747853
0.0727463
0.0703157
0.0675011
0.0643095
0.0607443
0.0568038
0.0524804
0.0477607
0.0426248
0.0370421
0.0309662
0.0243302
0.0170484
0.00901809
0.000145079
-0.00964213
-0.0205666
0.0683111
0.068179
0.0677655
0.0670171
0.0659206
0.0644721
0.0626709
0.0605228
0.0580353
0.0552152
0.052066
0.048586
0.0447687
0.040604
0.0360775
0.031167
0.0258369
0.020035
0.0136935
0.00673286
-0.000917612
-0.00930818
-0.0186202
0.0578104
0.0576161
0.0572255
0.0565927
0.0556693
0.0544377
0.052897
0.0510531
0.0489136
0.0464855
0.0437725
0.0407736
0.0374843
0.0338976
0.0300032
0.0257844
0.0212135
0.0162492
0.0108389
0.0049226
-0.00155029
-0.0086114
-0.0164009
0.0475075
0.047187
0.0468143
0.0463285
0.0456146
0.0446312
0.043377
0.0418584
0.0400844
0.0380631
0.0357998
0.0332954
0.0305479
0.0275523
0.0243015
0.0207834
0.0169768
0.0128499
0.00836252
0.00346977
-0.00186374
-0.00765485
-0.0140051
0.0372765
0.0367951
0.0364216
0.0361562
0.0357208
0.0350328
0.0340939
0.0329187
0.0315218
0.0299154
0.0281082
0.0261038
0.0239021
0.0215002
0.0188939
0.0160759
0.0130316
0.00973717
0.00616188
0.00227232
-0.00195517
-0.00652659
-0.0115089
0.0269823
0.0262785
0.025915
0.0261018
0.0261056
0.0257734
0.0251671
0.024337
0.0233125
0.0221142
0.020755
0.0192411
0.0175736
0.0157516
0.0137748
0.0116403
0.00933911
0.00685448
0.00416442
0.00124665
-0.00191185
-0.00530962
-0.00898137
0.0164986
0.0155661
0.015208
0.0163062
0.016963
0.0169816
0.0166652
0.0161409
0.0154582
0.014644
0.0137126
0.0126699
0.0115174
0.0102564
0.00888878
0.00741459
0.00582926
0.00412365
0.00228696
0.000309856
-0.00180995
-0.00406559
-0.00647251
0.00583671
0.00506102
0.00456998
0.00550331
0.00647931
0.00668597
0.00659911
0.00638331
0.00608589
0.0057264
0.00531266
0.00484663
0.00432866
0.0037592
0.00313858
0.0024662
0.00174039
0.000960099
0.000126428
-0.000756793
-0.00168158
-0.00263372
-0.00360387
898.215
891.654
790.919
694.331
971.316
1007.36
1032.97
989.601
979.211
1000.72
1037
1087.26
733.796
755.505
868.958
1005.36
93.4394
97.9332
307.484
637.527
4.15782
10.3668
29.839
204.149
1.79481
4.951
11.2945
47.5779
1.2418
2.56254
5.80045
15.9983
0.91889
1.37739
2.86347
8.05648
0.710306
0.825978
1.38537
3.3233
0.54102
0.535126
0.615254
0.937146
0.403571
0.367609
0.343549
0.355441
0.296937
0.252676
0.20648
0.156454
0.210455
0.162576
0.111524
0.0501751
0.142324
0.0915668
0.0388285
-0.0199309
0.0898115
0.0376837
-0.0178709
-0.0750397
0.0503826
-0.000659591
-0.0567248
-0.113364
0.020875
-0.0273763
-0.0810791
-0.135196
-0.00128509
-0.0461443
-0.0961361
-0.146261
-0.0177679
-0.0592576
-0.105315
-0.151129
-0.0297418
-0.0679829
-0.110256
-0.152004
-0.0381534
-0.0732535
-0.111969
-0.150041
-0.0438089
-0.0759528
-0.111389
-0.146167
-0.0472783
-0.0767463
-0.109237
-0.141075
-0.0489473
-0.0760317
-0.105912
-0.135151
-0.0492073
-0.0741308
-0.101673
-0.128598
-0.0485222
-0.0714147
-0.0967835
-0.121592
-0.0473228
-0.0682478
-0.0915163
-0.114311
-0.0458887
-0.0648866
-0.0860847
-0.106911
-0.0442992
-0.0614258
-0.080588
-0.0994697
-0.0424863
-0.0578131
-0.0750005
-0.0919821
-0.0403414
-0.053948
-0.0692386
-0.0843862
-0.0377873
-0.0497599
-0.0632391
-0.0766247
-0.0348122
-0.045237
-0.0569923
-0.068689
-0.0314681
-0.0404292
-0.0505457
-0.0606253
-0.0278489
-0.03543
-0.0439922
-0.0525264
-0.0240612
-0.0303481
-0.0374433
-0.0445076
-0.0201999
-0.0252766
-0.0309933
-0.0366694
-0.0163265
-0.0202677
-0.0246911
-0.0290672
-0.0124744
-0.0153297
-0.0185294
-0.0216945
-0.00872584
-0.010539
-0.0125504
-0.0145263
-0.00446169
-0.00512658
-0.00585391
-0.0065609
812.013
505.598
478.596
581.227
541.831
401.817
310.528
441.09
518.441
508.626
386.866
404.972
489.916
790.234
631.636
699.104
1032.54
1132.35
1137.41
993.328
928.213
758.632
633.841
251.262
41.3123
45.1479
79.8332
333.625
499.204
438.986
439.253
678.503
592.493
397.932
404.41
751.527
1100.72
1121.86
1137.98
971.087
732.489
134.766
38.6036
38.7126
39.3907
43.4359
91.7374
446.453
531.452
554.897
724.995
541.279
365.065
364.474
473.315
1013.5
1091.3
1073.84
896.003
131.956
38.041
38.5689
38.2276
38.5395
39.8073
79.1503
379.024
426.988
594.784
749.781
496.998
336.78
334.122
354.99
470.533
993.361
845.18
677.248
38.0269
38.345
38.2063
37.84
38.1322
39.2727
65.838
133.43
366.673
732.074
767.1
307.388
322.52
304.568
236.91
235.691
656.249
581.58
742.046
63.9901
38.5726
38.1708
37.6778
38.0671
41.1283
61.4265
74.2431
426.359
942.307
727.98
215.597
237.937
262.711
210.606
207.561
204.461
386.133
762.772
165.219
39.5552
39.1746
38.7331
50.0045
59.4595
44.9673
55.657
232.431
999.835
692.766
184.512
174.606
159.609
186.602
224.3
192.009
217.245
683.332
352.199
53.062
41.6054
43.2515
51.8165
45.6466
38.6673
44.6368
311.345
1065.45
622.065
141.726
100.707
97.1215
211.49
234.745
210.53
97.7008
504.206
562.509
208.305
42.8708
41.9015
41.2985
38.7047
38.0393
37.8759
945.151
1127.89
534.709
101.809
46.7405
64.6536
169.702
223.245
232.608
27.0372
410.445
590.856
479.455
40.4927
41.0297
39.8482
39.0223
38.1166
76.5188
1183.88
1203.83
468.46
76.4478
22.816
25.2747
31.493
127.438
230.279
2.83881
167.155
626.656
622.032
294.635
39.9806
39.7419
38.908
36.4462
926.88
1255.26
1050.27
343.587
47.2992
6.22362
10.583
13.4251
39.7536
211.615
0.505759
6.04957
310.24
634.985
645.611
186.774
38.9018
100.318
670.81
1273.12
1157.26
93.6925
74.8986
25.9114
1.76146
2.99171
8.44743
172.824
191.652
0.0981159
0.192814
0.498749
181.539
629.37
821.939
852.334
879.818
881.637
666.998
42.0979
-0.0863942
-0.279813
13.0858
0.328193
0.74857
6.86388
227.529
240.338
-0.0627141
-0.195512
-0.156146
1.2748
129.859
420.526
505.297
417.003
157.448
-1.54235
-0.862618
-0.589565
-0.0448691
-0.681483
-0.325369
-0.169821
5.21004
239.752
248.407
-0.128281
-0.289546
-0.359507
-0.372962
-0.932534
-1.66341
0.919989
-2.08817
-1.28679
-0.900148
-0.829028
-0.651544
-0.659663
-0.778177
-0.673203
-0.661718
8.16669
254.115
258.458
-0.172181
-0.330665
-0.495823
-0.657825
-0.908939
-1.13898
-1.13334
-1.02866
-0.894744
-0.843866
-0.73891
-0.689937
-0.807846
-0.885694
-0.869723
-0.978
10.1832
268.667
270.358
-0.203177
-0.341875
-0.506299
-0.693837
-0.903097
-1.08542
-1.13049
-0.997475
-0.857132
-0.792261
-0.710251
-0.731321
-0.847386
-0.965886
-1.02561
-1.14586
8.3524
136.821
285.028
-0.218206
-0.3361
-0.470776
-0.621148
-0.781929
-0.915603
-0.945935
-0.857381
-0.743144
-0.713163
-0.706864
-0.742482
-0.850939
-0.969342
-1.06119
-1.16086
3.39701
19.7091
296.624
-0.221507
-0.322788
-0.433847
-0.551049
-0.667184
-0.758716
-0.791165
-0.772721
-0.683235
-0.664172
-0.686387
-0.726236
-0.812756
-0.905332
-0.977143
-1.05003
-0.490214
3.24005
304.8
-0.218631
-0.306137
-0.39976
-0.495011
-0.583855
-0.65248
-0.685684
-0.685588
-0.665451
-0.643267
-0.652233
-0.685293
-0.741797
-0.798762
-0.837572
-0.87173
-0.805753
-0.802503
309.874
-0.212542
-0.288533
-0.36801
-0.447064
-0.518733
-0.574435
-0.605963
-0.615096
-0.611493
-0.606446
-0.608503
-0.626515
-0.654137
-0.675903
-0.682021
-0.683241
-0.65328
-0.655099
317.547
-0.20459
-0.271095
-0.339103
-0.405442
-0.464645
-0.511214
-0.540319
-0.553615
-0.556958
-0.55626
-0.557157
-0.561273
-0.565038
-0.558108
-0.536649
-0.513204
-0.469511
-0.493022
318.16
-0.195552
-0.254223
-0.312964
-0.369223
-0.418804
-0.458168
-0.484901
-0.499534
-0.505219
-0.505664
-0.503413
-0.49806
-0.485277
-0.457833
-0.415526
-0.370125
-0.305241
-0.285655
197.755
-0.185945
-0.238051
-0.289188
-0.337301
-0.379197
-0.41263
-0.436434
-0.450834
-0.45737
-0.458013
-0.453605
-0.442806
-0.421329
-0.383096
-0.32812
-0.26318
-0.155498
-0.107525
22.7476
-0.176052
-0.222573
-0.267374
-0.308778
-0.344372
-0.37281
-0.393657
-0.407186
-0.414136
-0.415235
-0.410532
-0.398697
-0.376257
-0.338316
-0.283043
-0.205646
-0.0399682
-0.0812309
4.08879
-0.166002
-0.207727
-0.247212
-0.283054
-0.313422
-0.337616
-0.355765
-0.368315
-0.375635
-0.377838
-0.374778
-0.36582
-0.349217
-0.322455
-0.284437
-0.219954
-0.0608306
18.8896
19.3635
-0.155863
-0.193435
-0.228458
-0.259711
-0.285758
-0.306349
-0.322062
-0.333614
-0.34131
-0.345068
-0.344912
-0.341274
-0.334674
-0.325995
-0.316158
-0.295589
-0.264331
71.6165
101.575
-0.145692
-0.179627
-0.210901
-0.238392
-0.260906
-0.278459
-0.291944
-0.302381
-0.310248
-0.315427
-0.318238
-0.320076
-0.323305
-0.331462
-0.348992
-0.378326
-0.501468
60.3075
123.915
-0.135542
-0.166232
-0.194322
-0.218731
-0.238384
-0.253403
-0.264873
-0.274082
-0.281582
-0.287459
-0.292119
-0.297368
-0.306204
-0.322629
-0.352244
-0.400936
-0.529884
7.21159
128.308
-0.125437
-0.153164
-0.178484
-0.200328
-0.217651
-0.230592
-0.24031
-0.248155
-0.254802
-0.260344
-0.265214
-0.27094
-0.280038
-0.295195
-0.318954
-0.350475
-0.402004
-0.378274
131.549
-0.115359
-0.140322
-0.163155
-0.182794
-0.198176
-0.209386
-0.217537
-0.224006
-0.229467
-0.233986
-0.237699
-0.241695
-0.247545
-0.25673
-0.268976
-0.280385
-0.280277
-0.302011
134.428
-0.105266
-0.127613
-0.148145
-0.165812
-0.179517
-0.189223
-0.195232
-0.200429
-0.205112
-0.208329
-0.210352
-0.211729
-0.213323
-0.215903
-0.218752
-0.218028
-0.197019
-0.213038
136.935
-0.0951118
-0.114966
-0.133318
-0.149167
-0.161383
-0.169761
-0.173849
-0.178281
-0.181485
-0.183175
-0.183491
-0.182418
-0.180289
-0.177153
-0.173764
-0.167435
-0.144346
-0.146369
91.9732
-0.0848825
-0.102338
-0.118593
-0.132734
-0.143624
-0.15088
-0.154464
-0.156242
-0.158476
-0.158549
-0.157295
-0.154324
-0.149463
-0.142626
-0.134374
-0.124853
-0.107619
-0.111077
-0.0868703
-0.0746119
-0.0897389
-0.10395
-0.116454
-0.126161
-0.132537
-0.135918
-0.132518
-0.121048
-0.0862749
-0.0796687
-0.0922451
-0.115895
-0.111078
-0.0975774
-0.0663209
0.0585425
0.0528673
0.105465
-0.0643892
-0.0772407
-0.0894312
-0.100323
-0.108942
-0.114645
-0.117534
-0.118255
-0.0365668
-0.0290255
-0.0242649
-0.018549
-0.0395665
-0.083784
-0.067609
0.341664
0.819798
0.358015
6.54425
-0.0543343
-0.0649612
-0.0751447
-0.0844227
-0.0919893
-0.097107
-0.0996899
-0.100275
-0.0664406
-0.00750019
-0.0034952
0.00228952
-0.0508543
-0.0634375
0.31537
0.938869
0.905003
0.355432
42.689
-0.0445596
-0.0530315
-0.0612345
-0.0689104
-0.0754543
-0.0799645
-0.0822207
-0.0827682
-0.0820475
-0.0495848
-0.012861
-0.0392582
-0.0633682
0.0996019
0.955174
0.963551
0.435957
0.349456
43.9498
-0.0351401
-0.0415579
-0.0478243
-0.0539408
-0.059588
-0.0634877
-0.0652236
-0.0656563
-0.0650064
-0.0630992
-0.0589575
-0.0549842
-0.049472
-0.00447463
0.601102
0.606465
0.0297092
-0.0259181
44.5995
-0.0260865
-0.0305871
-0.0349956
-0.0396874
-0.0449787
-0.0487798
-0.0496369
-0.0497174
-0.0490819
-0.0471933
-0.0437603
-0.0388762
-0.0326651
-0.027382
-0.0106149
-0.0187163
-0.0313768
-0.03621
35.2055
-0.0172519
-0.0199651
-0.0227193
-0.0265682
-0.0334357
-0.0384269
-0.0376537
-0.0369748
-0.0361032
-0.0339638
-0.0299436
-0.0237475
-0.0148847
-0.00290254
0.0135616
0.0098538
-0.0320491
-0.0895943
24.0907
-0.00755114
-0.00849932
-0.00975127
-0.0133417
-0.0254451
-0.0272929
-0.0242956
-0.0230606
-0.0222243
-0.0203772
-0.0167395
-0.0106875
-0.00119691
0.0156803
0.0469006
0.0475524
-0.064761
-0.364634
0.649276
)
;

boundaryField
{
    leftWall
    {
        type            fixedFluxPressure;
        gradient        uniform 0;
        value           nonuniform List<scalar> 
50
(
615.71
615.58
613.213
609.286
604.524
599.186
593.309
586.741
462.093
31.3424
0.732642
0.660302
0.629128
0.601386
0.575105
0.550398
0.526384
0.503069
0.480388
0.458238
0.436558
0.415307
0.394464
0.374019
0.353969
0.33432
0.315084
0.296287
0.277964
0.260151
0.242884
0.22619
0.210086
0.194577
0.17966
0.165323
0.151546
0.138308
0.12558
0.113331
0.101524
0.0901159
0.079062
0.0683111
0.0578104
0.0475075
0.0372765
0.0269823
0.0164986
0.00583671
)
;
    }
    rightWall
    {
        type            fixedFluxPressure;
        gradient        uniform 0;
        value           nonuniform List<scalar> 
50
(
1172.64
1171.55
1162.53
1149.11
1142.21
1134
1129.07
1152.32
1137.41
1121.86
1091.3
993.361
656.249
204.461
192.009
210.53
232.608
230.279
211.615
191.652
240.338
248.407
258.458
270.358
285.028
296.624
304.8
309.874
317.547
318.16
197.755
22.7476
4.08879
19.3635
101.575
123.915
128.308
131.549
134.428
136.935
91.9732
-0.0868703
0.105465
6.54425
42.689
43.9498
44.5995
35.2055
24.0907
0.649276
)
;
    }
    lowerWall
    {
        type            fixedFluxPressure;
        gradient        uniform 0;
        value           nonuniform List<scalar> 
62
(
615.71
613.603
615.776
621.932
631.281
642.855
656.084
670.553
685.942
701.993
718.488
735.221
752.013
768.719
785.153
801.066
816.216
830.362
841.923
850.326
856.521
860.917
862.323
862.323
859.184
855.759
852.255
848.912
844.234
835.351
829.185
898.215
891.654
790.919
694.331
1146.69
1196.01
1284.45
1261.92
1151.73
1022.08
932.858
907.77
1146.69
1057.32
824.707
627.061
628.204
732.779
788.753
774.168
741.527
727.351
754.362
847.204
1000.59
1154.27
1237.67
1259.62
1246.82
1199.77
1172.64
)
;
    }
    atmosphere
    {
        type            totalPressure;
        rho             rho;
        psi             none;
        gamma           1;
        p0              uniform 0;
        value           nonuniform List<scalar> 
46
(
0
0
0
0
-5.21488e-06
-2.10475e-05
-4.48145e-05
-7.616e-05
-0.000115431
-0.000163497
-0.000221711
-0.000291885
-0.000376211
-0.000477121
-0.000596999
-0.000737659
-0.000899513
-0.00108038
-0.00127408
-0.00146922
-0.00164844
-0.00178906
-0.00186597
-0.00186374
-0.00185257
-0.00183371
-0.00180321
-0.00170744
-0.0013512
-0.000849753
-0.000346989
-1.51085e-05
0
0
0
0
0
0
0
0
0
0
-0.000645862
-0.0354043
-0.144926
0
)
;
    }
    defaultFaces
    {
        type            empty;
    }
}


// ************************************************************************* //
