/*--------------------------------*- C++ -*----------------------------------*\
| =========                 |                                                 |
| \\      /  F ield         | OpenFOAM: The Open Source CFD Toolbox           |
|  \\    /   O peration     | Version:  v2012                                 |
|   \\  /    A nd           | Website:  www.openfoam.com                      |
|    \\/     M anipulation  |                                                 |
\*---------------------------------------------------------------------------*/
FoamFile
{
    version     2.0;
    format      ascii;
    class       surfaceScalarField;
    location    "0.75";
    object      phi;
}
// * * * * * * * * * * * * * * * * * * * * * * * * * * * * * * * * * * * * * //

dimensions      [0 3 -1 0 0 0 0];
oriented        oriented;


internalField   nonuniform List<scalar> 
4432
(
-5.32484e-06
5.32484e-06
-9.53535e-06
4.2105e-06
-1.13932e-05
1.85783e-06
-1.20849e-05
6.91733e-07
-1.25023e-05
4.17359e-07
-1.29619e-05
4.59593e-07
-1.3494e-05
5.32157e-07
-1.40437e-05
5.49699e-07
-1.45464e-05
5.0262e-07
-1.4948e-05
4.0167e-07
-1.52131e-05
2.6503e-07
-1.5325e-05
1.11929e-07
-1.52771e-05
-4.793e-08
-1.50858e-05
-1.91278e-07
-1.47874e-05
-2.98444e-07
-1.44406e-05
-3.46741e-07
-1.41242e-05
-3.16447e-07
-1.39194e-05
-2.0478e-07
-1.38098e-05
-1.09613e-07
-1.33918e-05
-4.17934e-07
-1.13175e-05
-2.07433e-06
-6.54415e-06
-4.77337e-06
-6.54414e-06
-5.61863e-06
1.09435e-05
-8.56152e-06
7.15338e-06
-9.8889e-06
3.1852e-06
-1.07286e-05
1.53141e-06
-1.14982e-05
1.18694e-06
-1.23e-05
1.26146e-06
-1.31119e-05
1.34398e-06
-1.38738e-05
1.31163e-06
-1.45341e-05
1.1629e-06
-1.50565e-05
9.24067e-07
-1.54199e-05
6.2846e-07
-1.56193e-05
3.11333e-07
-1.56626e-05
-4.64815e-09
-1.55466e-05
-3.0728e-07
-1.52764e-05
-5.68641e-07
-1.4875e-05
-7.4821e-07
-1.43558e-05
-8.35648e-07
-1.36523e-05
-9.08214e-07
-1.25668e-05
-1.19513e-06
-1.07898e-05
-2.19491e-06
-8.13886e-06
-4.72531e-06
-4.46049e-06
-8.45175e-06
-1.10046e-05
-4.657e-06
1.56005e-05
-6.96451e-06
9.46088e-06
-8.41429e-06
4.63498e-06
-9.56047e-06
2.67759e-06
-1.06282e-05
2.25465e-06
-1.16797e-05
2.31301e-06
-1.26859e-05
2.35014e-06
-1.35973e-05
2.22302e-06
-1.43776e-05
1.94325e-06
-1.5002e-05
1.54843e-06
-1.54545e-05
1.08099e-06
-1.57316e-05
5.88346e-07
-1.58345e-05
9.82836e-08
-1.57593e-05
-3.82493e-07
-1.54966e-05
-8.31275e-07
-1.50439e-05
-1.20091e-06
-1.43784e-05
-1.50119e-06
-1.33947e-05
-1.89197e-06
-1.18897e-05
-2.70005e-06
-9.61657e-06
-4.46808e-06
-6.52946e-06
-7.81241e-06
-2.83253e-06
-1.21487e-05
-1.38372e-05
-3.63219e-06
1.92327e-05
-5.62065e-06
1.14493e-05
-7.18132e-06
6.19564e-06
-8.57998e-06
4.07625e-06
-9.92336e-06
3.59802e-06
-1.12142e-05
3.60388e-06
-1.24031e-05
3.53898e-06
-1.34472e-05
3.2671e-06
-1.43269e-05
2.82304e-06
-1.50293e-05
2.25074e-06
-1.55444e-05
1.59611e-06
-1.58722e-05
9.16173e-07
-1.60152e-05
2.41203e-07
-1.59645e-05
-4.33171e-07
-1.57013e-05
-1.09443e-06
-1.52105e-05
-1.69175e-06
-1.44586e-05
-2.25309e-06
-1.33396e-05
-3.01089e-06
-1.16616e-05
-4.37813e-06
-9.21335e-06
-6.9163e-06
-5.85682e-06
-1.11689e-05
-1.874e-06
-1.61315e-05
-1.57112e-05
-2.5779e-06
2.18106e-05
-4.38764e-06
1.32591e-05
-6.08367e-06
7.89168e-06
-7.74088e-06
5.73345e-06
-9.36069e-06
5.21783e-06
-1.08857e-05
5.12885e-06
-1.22477e-05
4.90101e-06
-1.34125e-05
4.43189e-06
-1.43788e-05
3.78939e-06
-1.51446e-05
3.01644e-06
-1.57059e-05
2.15741e-06
-1.60683e-05
1.27858e-06
-1.62378e-05
4.10689e-07
-1.6202e-05
-4.68916e-07
-1.59348e-05
-1.36168e-06
-1.54194e-05
-2.20713e-06
-1.46315e-05
-3.04096e-06
-1.3485e-05
-4.15735e-06
-1.18198e-05
-6.04338e-06
-9.4237e-06
-9.3124e-06
-6.02073e-06
-1.45719e-05
-1.70506e-06
-2.04472e-05
-1.74162e-05
-1.48945e-06
2.33e-05
-3.21367e-06
1.49833e-05
-5.10887e-06
9.78688e-06
-7.0558e-06
7.68037e-06
-8.95637e-06
7.1184e-06
-1.07055e-05
6.87802e-06
-1.22258e-05
6.42123e-06
-1.34962e-05
5.70232e-06
-1.45355e-05
4.82869e-06
-1.53501e-05
3.83107e-06
-1.59419e-05
2.74914e-06
-1.63239e-05
1.66067e-06
-1.65083e-05
5.95027e-07
-1.64796e-05
-4.97609e-07
-1.62056e-05
-1.63572e-06
-1.56769e-05
-2.73583e-06
-1.48933e-05
-3.8245e-06
-1.38036e-05
-5.24709e-06
-1.22931e-05
-7.5538e-06
-1.01803e-05
-1.14252e-05
-7.12117e-06
-1.7631e-05
-2.7497e-06
-2.48186e-05
-2.01659e-05
-4.61522e-07
2.37615e-05
-2.1143e-06
1.66361e-05
-4.28035e-06
1.19529e-05
-6.55549e-06
9.95551e-06
-8.73521e-06
9.29812e-06
-1.06889e-05
8.83175e-06
-1.23447e-05
8.077e-06
-1.37011e-05
7.05867e-06
-1.47968e-05
5.92446e-06
-1.5643e-05
4.67727e-06
-1.6247e-05
3.35312e-06
-1.66329e-05
2.04656e-06
-1.68206e-05
7.82726e-07
-1.67914e-05
-5.26851e-07
-1.65068e-05
-1.92029e-06
-1.59715e-05
-3.2711e-06
-1.52206e-05
-4.5754e-06
-1.42465e-05
-6.22115e-06
-1.29947e-05
-8.80564e-06
-1.13837e-05
-1.30362e-05
-9.27131e-06
-1.97435e-05
-5.87991e-06
-2.821e-05
-2.60458e-05
4.89523e-07
2.3272e-05
-1.12125e-06
1.82468e-05
-3.63814e-06
1.44698e-05
-6.27573e-06
1.25931e-05
-8.71522e-06
1.17376e-05
-1.08385e-05
1.09551e-05
-1.25989e-05
9.83739e-06
-1.40162e-05
8.47596e-06
-1.51499e-05
7.05808e-06
-1.60061e-05
5.53351e-06
-1.66007e-05
3.94772e-06
-1.69732e-05
2.41911e-06
-1.71531e-05
9.62604e-07
-1.71162e-05
-5.63813e-07
-1.68156e-05
-2.22083e-06
-1.6275e-05
-3.8117e-06
-1.55721e-05
-5.27831e-06
-1.47446e-05
-7.04866e-06
-1.38031e-05
-9.7471e-06
-1.28391e-05
-1.40002e-05
-1.22719e-05
-2.03107e-05
-1.13575e-05
-2.91244e-05
-3.74033e-05
5.46549e-06
-5.46549e-06
-4.86806e-05
5.41461e-05
-9.7556e-05
4.88754e-05
-0.000120058
2.2502e-05
-0.000120227
1.68493e-07
-0.000113586
-6.64037e-06
-0.000110991
-2.59475e-06
-0.000113043
2.05194e-06
-0.000116267
3.22402e-06
-0.000116596
3.28917e-07
-0.000111922
-4.67393e-06
-0.000101194
-1.07286e-05
-8.37267e-05
-1.74672e-05
-6.12789e-05
-2.24477e-05
-3.92235e-05
-2.20554e-05
-1.99238e-05
-1.92997e-05
-3.04494e-06
-1.68789e-05
7.79997e-06
-1.08449e-05
7.79997e-06
-4.1004e-05
3.55385e-05
-9.1793e-05
0.000104935
-0.000119718
7.67999e-05
-0.000121039
2.38238e-05
-0.000115113
-5.75794e-06
-0.000108301
-1.34526e-05
-0.000106639
-4.25683e-06
-0.000109412
4.82513e-06
-0.000111713
5.52505e-06
-0.000111357
-2.68065e-08
-0.000107255
-8.77582e-06
-9.7944e-05
-2.00397e-05
-8.26636e-05
-3.27476e-05
-6.32321e-05
-4.18792e-05
-4.44128e-05
-4.08748e-05
-2.7581e-05
-3.61315e-05
-1.19657e-05
-3.24942e-05
-5.29255e-07
-2.22813e-05
7.27071e-06
-5.6554e-05
9.20925e-05
-9.72466e-05
0.000145628
-0.000110884
9.04369e-05
-0.000108828
2.17685e-05
-0.00010249
-1.20959e-05
-9.5636e-05
-2.0307e-05
-9.60342e-05
-3.85856e-06
-0.000100659
9.44943e-06
-0.000104312
9.17891e-06
-0.000104619
2.79672e-07
-0.000101078
-1.23168e-05
-9.28301e-05
-2.82874e-05
-7.93514e-05
-4.62262e-05
-6.21065e-05
-5.91242e-05
-4.58532e-05
-5.71281e-05
-3.16499e-05
-5.03347e-05
-1.79398e-05
-4.62043e-05
-6.5498e-06
-3.36714e-05
7.20905e-07
-5.27145e-05
0.000144807
-8.24266e-05
0.00017534
-9.00379e-05
9.80482e-05
-8.46928e-05
1.64234e-05
-7.31862e-05
-2.36024e-05
-6.76365e-05
-2.58567e-05
-7.95165e-05
8.02143e-06
-9.06086e-05
2.05415e-05
-9.70748e-05
1.56451e-05
-9.81483e-05
1.35311e-06
-9.46983e-05
-1.57668e-05
-8.69247e-05
-3.60611e-05
-7.47362e-05
-5.84147e-05
-5.9198e-05
-7.46624e-05
-4.53134e-05
-7.10127e-05
-3.36382e-05
-6.20099e-05
-2.17247e-05
-5.81178e-05
-9.69412e-06
-4.5702e-05
-8.97322e-06
-4.15973e-05
0.000186404
-5.41068e-05
0.000187849
-4.40964e-05
8.80379e-05
-2.67393e-05
-9.33747e-07
-9.06605e-06
-4.12756e-05
-2.16146e-05
-1.33081e-05
-4.87447e-05
3.51515e-05
-7.50412e-05
4.68381e-05
-8.8856e-05
2.94599e-05
-9.21092e-05
4.60628e-06
-8.83257e-05
-1.95502e-05
-8.01379e-05
-4.4249e-05
-6.86555e-05
-6.98971e-05
-5.47096e-05
-8.86082e-05
-4.34308e-05
-8.22915e-05
-3.43156e-05
-7.11251e-05
-2.37931e-05
-6.86402e-05
-1.13235e-05
-5.81716e-05
-2.02967e-05
-2.61704e-05
0.000212575
-2.1029e-05
0.000182708
2.48752e-06
6.45214e-05
2.02721e-05
-1.87183e-05
2.96788e-05
-5.06823e-05
2.55425e-05
-9.17194e-06
5.17477e-07
6.01766e-05
-4.22543e-05
8.96098e-05
-7.58998e-05
6.31053e-05
-8.63056e-05
1.50121e-05
-8.21734e-05
-2.36825e-05
-7.24438e-05
-5.39785e-05
-6.10108e-05
-8.13301e-05
-4.89582e-05
-0.000100661
-4.08023e-05
-9.04474e-05
-3.44627e-05
-7.74648e-05
-2.50547e-05
-7.80482e-05
-1.2164e-05
-7.10624e-05
-3.24607e-05
-8.55747e-06
0.000221132
1.26316e-05
0.000161519
4.12599e-05
3.58931e-05
5.61869e-05
-3.36454e-05
5.67213e-05
-5.12166e-05
5.44213e-05
-6.872e-06
4.36733e-05
7.09247e-05
1.43633e-05
0.00011892
-3.68063e-05
0.000114275
-7.32156e-05
5.14213e-05
-7.49976e-05
-2.19004e-05
-6.38176e-05
-6.51586e-05
-5.20698e-05
-9.30779e-05
-4.26594e-05
-0.000110071
-3.81699e-05
-9.4937e-05
-3.46743e-05
-8.09604e-05
-2.60562e-05
-8.66663e-05
-1.26207e-05
-8.44979e-05
-4.50814e-05
7.63136e-06
0.000213501
4.15921e-05
0.000127558
6.53933e-05
1.20919e-05
7.17604e-05
-4.00125e-05
6.87452e-05
-4.82014e-05
6.71833e-05
-5.31015e-06
6.13496e-05
7.67583e-05
4.69742e-05
0.000133295
1.0648e-05
0.000150601
-3.84876e-05
0.000100557
-6.24568e-05
2.06874e-06
-5.3912e-05
-7.37033e-05
-4.33298e-05
-0.00010366
-3.68758e-05
-0.000116525
-3.61519e-05
-9.56608e-05
-3.52527e-05
-8.18595e-05
-2.68677e-05
-9.50513e-05
-1.28788e-05
-9.84867e-05
-5.79602e-05
2.91826e-06
2.03537e-05
-1.75641e-07
2.13407e-05
-6.61376e-06
2.09079e-05
-1.3275e-05
1.92543e-05
-1.9082e-05
1.75446e-05
-2.39203e-05
1.57934e-05
-2.7889e-05
1.38061e-05
-3.11091e-05
1.16961e-05
-3.35548e-05
9.50373e-06
-3.53052e-05
7.2839e-06
-3.64567e-05
5.09924e-06
-3.71469e-05
3.10935e-06
-3.74732e-05
1.28888e-06
-3.73585e-05
-6.78532e-07
-3.66426e-05
-2.9367e-06
-3.54518e-05
-5.00251e-06
-3.41241e-05
-6.60605e-06
-3.2851e-05
-8.32167e-06
-3.18417e-05
-1.07565e-05
-3.17664e-05
-1.40755e-05
-3.38617e-05
-1.82154e-05
-3.93591e-05
-2.3627e-05
-2.64866e-05
-5.02758e-05
-2.79079e-06
2.31445e-05
-5.28455e-06
2.38345e-05
-1.14865e-05
2.71099e-05
-1.81624e-05
2.59303e-05
-2.33757e-05
2.27579e-05
-2.73588e-05
1.97764e-05
-3.06692e-05
1.71166e-05
-3.35191e-05
1.45459e-05
-3.52893e-05
1.1274e-05
-3.63304e-05
8.32493e-06
-3.69844e-05
5.75331e-06
-3.74414e-05
3.56636e-06
-3.77158e-05
1.56321e-06
-3.7529e-05
-8.65308e-07
-3.66223e-05
-3.84338e-06
-3.53068e-05
-6.31802e-06
-3.4199e-05
-7.7139e-06
-3.34348e-05
-9.08581e-06
-3.32082e-05
-1.09831e-05
-3.41117e-05
-1.31721e-05
-3.70188e-05
-1.53082e-05
-4.3568e-05
-1.70779e-05
-1.59182e-05
-5.41363e-05
-1.50615e-06
2.46507e-05
-6.41369e-06
2.87422e-05
-1.11016e-05
3.17978e-05
-1.59897e-05
3.08184e-05
-2.09939e-05
2.77622e-05
-2.52775e-05
2.406e-05
-2.95364e-05
2.13754e-05
-3.47107e-05
1.97203e-05
-3.70722e-05
1.36355e-05
-3.78015e-05
9.05422e-06
-3.81129e-05
6.0647e-06
-3.81423e-05
3.5958e-06
-3.76939e-05
1.11481e-06
-3.65905e-05
-1.96874e-06
-3.50205e-05
-5.41339e-06
-3.38292e-05
-7.50928e-06
-3.34803e-05
-8.06277e-06
-3.29979e-05
-9.56828e-06
-3.30392e-05
-1.09417e-05
-3.44201e-05
-1.17911e-05
-3.7703e-05
-1.20253e-05
-4.29069e-05
-1.1874e-05
-1.01561e-05
-4.86691e-05
1.20797e-06
2.34427e-05
2.3048e-06
2.76454e-05
1.79967e-06
3.2303e-05
-3.11686e-07
3.29298e-05
-3.51932e-06
3.09698e-05
-7.9026e-06
2.84434e-05
-1.39222e-05
2.73951e-05
-2.12267e-05
2.70248e-05
-2.84763e-05
2.08852e-05
-3.32735e-05
1.38514e-05
-3.52412e-05
8.03239e-06
-3.5608e-05
3.96264e-06
-3.48726e-05
3.79472e-07
-3.35129e-05
-3.32844e-06
-3.27109e-05
-6.21546e-06
-3.39377e-05
-6.28245e-06
-3.62956e-05
-5.70489e-06
-3.44543e-05
-1.14095e-05
-3.39565e-05
-1.14395e-05
-3.58147e-05
-9.93289e-06
-4.07035e-05
-7.1366e-06
-4.764e-05
-4.93745e-06
-3.69754e-06
-5.40985e-05
9.75087e-07
2.24677e-05
2.76471e-06
2.58558e-05
5.29443e-06
2.97733e-05
6.89009e-06
3.13342e-05
6.99067e-06
3.08693e-05
5.74605e-06
2.96881e-05
4.15176e-06
2.89895e-05
2.84296e-06
2.83337e-05
-8.9621e-07
2.46244e-05
-5.83524e-06
1.87905e-05
-1.08348e-05
1.3032e-05
-1.51458e-05
8.27369e-06
-1.90741e-05
4.30773e-06
-2.28221e-05
4.19599e-07
-2.72648e-05
-1.77276e-06
-3.12307e-05
-2.31647e-06
-3.16345e-05
-5.30114e-06
-3.31934e-05
-9.85058e-06
-3.39512e-05
-1.06817e-05
-3.69178e-05
-6.96633e-06
-4.55812e-05
1.52684e-06
-6.30426e-05
1.2524e-05
6.29274e-06
-7.30329e-05
7.10911e-07
2.17568e-05
2.48158e-06
2.40851e-05
5.5812e-06
2.66736e-05
8.63684e-06
2.82786e-05
1.07475e-05
2.87586e-05
1.18193e-05
2.86163e-05
1.24347e-05
2.8374e-05
1.29433e-05
2.78252e-05
1.18691e-05
2.56986e-05
8.81157e-06
2.18481e-05
4.49875e-06
1.73449e-05
-4.01363e-07
1.31739e-05
-5.6677e-06
9.57409e-06
-1.18292e-05
6.58113e-06
-1.82593e-05
4.65731e-06
-2.40499e-05
3.47418e-06
-3.05491e-05
1.19811e-06
-3.87548e-05
-1.64486e-06
-4.88004e-05
-6.36034e-07
-6.15945e-05
5.82772e-06
-7.71492e-05
1.70814e-05
-9.15748e-05
2.69495e-05
2.37178e-05
-0.000109
1.19802e-06
2.05587e-05
3.09984e-06
2.21832e-05
5.8733e-06
2.39e-05
8.854e-06
2.52978e-05
1.1451e-05
2.61616e-05
1.34577e-05
2.66097e-05
1.50269e-05
2.68048e-05
1.62436e-05
2.66085e-05
1.64754e-05
2.54668e-05
1.51293e-05
2.31943e-05
1.22118e-05
2.02625e-05
8.08227e-06
1.73034e-05
2.96836e-06
1.4688e-05
-3.08566e-06
1.26352e-05
-9.74283e-06
1.13145e-05
-1.6804e-05
1.05353e-05
-2.53169e-05
9.71107e-06
-3.65427e-05
9.58105e-06
-5.01987e-05
1.30199e-05
-6.58715e-05
2.15003e-05
-8.32178e-05
3.44276e-05
-0.000103124
4.68554e-05
4.64678e-05
-0.000125874
1.5453e-06
1.90134e-05
3.47263e-06
2.02557e-05
5.88155e-06
2.1491e-05
8.49269e-06
2.26866e-05
1.09959e-05
2.36583e-05
1.32145e-05
2.43911e-05
1.51197e-05
2.48997e-05
1.66505e-05
2.50777e-05
1.74506e-05
2.46668e-05
1.7081e-05
2.3564e-05
1.53568e-05
2.19867e-05
1.23554e-05
2.03049e-05
8.20739e-06
1.8836e-05
3.02946e-06
1.78131e-05
-3.05098e-06
1.7395e-05
-1.01086e-05
1.7593e-05
-1.88129e-05
1.84154e-05
-2.99072e-05
2.06754e-05
-4.30331e-05
2.61457e-05
-5.74705e-05
3.59376e-05
-7.25521e-05
4.95091e-05
-8.81678e-05
6.24709e-05
6.19163e-05
-0.000103616
1.55764e-06
1.74556e-05
3.38519e-06
1.8428e-05
5.48763e-06
1.93885e-05
7.75239e-06
2.04218e-05
1.00194e-05
2.13913e-05
1.21612e-05
2.22493e-05
1.40969e-05
2.2964e-05
1.57166e-05
2.34581e-05
1.67777e-05
2.36058e-05
1.69826e-05
2.33591e-05
1.61353e-05
2.28341e-05
1.41849e-05
2.22553e-05
1.11599e-05
2.18611e-05
7.10968e-06
2.18634e-05
2.0619e-06
2.24428e-05
-4.09527e-06
2.37502e-05
-1.17178e-05
2.60379e-05
-2.10601e-05
3.00175e-05
-3.17293e-05
3.68147e-05
-4.29424e-05
4.71505e-05
-5.38824e-05
6.04489e-05
-6.4413e-05
7.30014e-05
7.43625e-05
-7.68594e-05
1.38308e-06
1.60725e-05
3.02152e-06
1.67894e-05
4.84676e-06
1.75632e-05
6.80794e-06
1.84606e-05
8.81619e-06
1.9383e-05
1.07811e-05
2.02843e-05
1.26183e-05
2.11269e-05
1.42181e-05
2.18584e-05
1.54066e-05
2.24173e-05
1.59778e-05
2.2788e-05
1.5767e-05
2.3045e-05
1.46859e-05
2.33365e-05
1.27054e-05
2.38416e-05
9.82319e-06
2.47457e-05
6.02858e-06
2.62374e-05
1.2507e-06
2.8528e-05
-4.64416e-06
3.19327e-05
-1.1639e-05
3.70122e-05
-1.93146e-05
4.44901e-05
-2.69483e-05
5.47841e-05
-3.38522e-05
6.73527e-05
-4.03311e-05
7.94801e-05
8.42399e-05
-5.02085e-05
1.12724e-06
1.49451e-05
2.53471e-06
1.53818e-05
4.10507e-06
1.59928e-05
5.80135e-06
1.67643e-05
7.56669e-06
1.76177e-05
9.33539e-06
1.85157e-05
1.10349e-05
1.94275e-05
1.25731e-05
2.03203e-05
1.38242e-05
2.11664e-05
1.46438e-05
2.19685e-05
1.49054e-05
2.27836e-05
1.45232e-05
2.37188e-05
1.34512e-05
2.49137e-05
1.16686e-05
2.65282e-05
9.16294e-06
2.8743e-05
5.91526e-06
3.17756e-05
1.92634e-06
3.59215e-05
-2.6606e-06
4.15989e-05
-7.43986e-06
4.92692e-05
-1.18091e-05
5.91532e-05
-1.5267e-05
7.08105e-05
-1.82383e-05
8.24514e-05
8.99669e-05
-2.39653e-05
8.59052e-07
1.4086e-05
2.02962e-06
1.42112e-05
3.36706e-06
1.46553e-05
4.83223e-06
1.52992e-05
6.38202e-06
1.6068e-05
7.96683e-06
1.6931e-05
9.52894e-06
1.78655e-05
1.09967e-05
1.88527e-05
1.228e-05
1.98832e-05
1.32787e-05
2.09698e-05
1.39016e-05
2.21608e-05
1.40808e-05
2.35396e-05
1.37761e-05
2.52185e-05
1.29706e-05
2.73337e-05
1.16672e-05
3.00464e-05
9.89047e-06
3.35522e-05
7.71509e-06
3.80967e-05
5.33509e-06
4.39788e-05
3.12107e-06
5.14831e-05
1.56848e-06
6.07058e-05
1.08266e-06
7.12964e-05
1.45456e-06
8.20794e-05
9.05931e-05
8.28399e-07
6.22182e-07
1.34638e-05
1.57314e-06
1.32602e-05
2.70213e-06
1.35263e-05
3.96617e-06
1.40352e-05
5.3288e-06
1.47055e-05
6.75153e-06
1.55084e-05
8.19024e-06
1.64269e-05
9.59199e-06
1.74511e-05
1.0894e-05
1.85813e-05
1.20287e-05
1.98352e-05
1.29345e-05
2.12551e-05
1.35654e-05
2.29088e-05
1.3896e-05
2.4888e-05
1.39234e-05
2.73063e-05
1.36698e-05
3.03e-05
1.31906e-05
3.40313e-05
1.25975e-05
3.86898e-05
1.20968e-05
4.44794e-05
1.20148e-05
5.15652e-05
1.27593e-05
5.99613e-05
1.46821e-05
6.93736e-05
1.77833e-05
7.89781e-05
8.72033e-05
2.1173e-05
4.35869e-07
1.30279e-05
1.19893e-06
1.2497e-05
2.14799e-06
1.25772e-05
3.23949e-06
1.29437e-05
4.4419e-06
1.35032e-05
5.72545e-06
1.4225e-05
7.05766e-06
1.50948e-05
8.40141e-06
1.61074e-05
9.71484e-06
1.72679e-05
1.09549e-05
1.85952e-05
1.20838e-05
2.01263e-05
1.30757e-05
2.1917e-05
1.39217e-05
2.4042e-05
1.46342e-05
2.65938e-05
1.52518e-05
2.96824e-05
1.58484e-05
3.34347e-05
1.65494e-05
3.79889e-05
1.75522e-05
4.34766e-05
1.91362e-05
4.99812e-05
2.16342e-05
5.74631e-05
2.53462e-05
6.56615e-05
3.0366e-05
7.39584e-05
8.1276e-05
3.62932e-05
3.03742e-07
1.27241e-05
9.17748e-07
1.18829e-05
1.71833e-06
1.17766e-05
2.66532e-06
1.19968e-05
3.73271e-06
1.24359e-05
4.89833e-06
1.30595e-05
6.13973e-06
1.38535e-05
7.43271e-06
1.48145e-05
8.75162e-06
1.5949e-05
1.00718e-05
1.7275e-05
1.13739e-05
1.88242e-05
1.26488e-05
2.06422e-05
1.39018e-05
2.2789e-05
1.51579e-05
2.53377e-05
1.64666e-05
2.83738e-05
1.79096e-05
3.19917e-05
1.96116e-05
3.62869e-05
2.17501e-05
4.13381e-05
2.45571e-05
4.71743e-05
2.82968e-05
5.37234e-05
3.32099e-05
6.07484e-05
3.94015e-05
6.77668e-05
7.4016e-05
4.66616e-05
2.22977e-07
1.25011e-05
7.27417e-07
1.13784e-05
1.41119e-06
1.10929e-05
2.2406e-06
1.11675e-05
3.19605e-06
1.14806e-05
4.26252e-06
1.19931e-05
5.42623e-06
1.26898e-05
6.67352e-06
1.35672e-05
7.99121e-06
1.46312e-05
9.36845e-06
1.58978e-05
1.07998e-05
1.73929e-05
1.22886e-05
1.91534e-05
1.38512e-05
2.12263e-05
1.5521e-05
2.3668e-05
1.73526e-05
2.65422e-05
1.94282e-05
2.99162e-05
2.18629e-05
3.38522e-05
2.48091e-05
3.83918e-05
2.84538e-05
4.35296e-05
3.3e-05
4.91773e-05
3.86274e-05
5.5121e-05
4.54193e-05
6.09748e-05
6.61901e-05
5.32451e-05
1.87977e-07
1.2313e-05
6.18825e-07
1.09474e-05
1.21512e-06
1.04966e-05
1.95163e-06
1.0431e-05
2.81569e-06
1.06166e-05
3.7991e-06
1.10097e-05
4.89554e-06
1.15933e-05
6.09986e-06
1.23628e-05
7.40845e-06
1.33226e-05
8.82071e-06
1.44855e-05
1.03412e-05
1.58724e-05
1.19825e-05
1.75122e-05
1.3768e-05
1.94407e-05
1.57357e-05
2.17002e-05
1.79412e-05
2.43367e-05
2.04615e-05
2.7396e-05
2.33978e-05
3.09159e-05
2.68766e-05
3.4913e-05
3.10435e-05
3.93627e-05
3.60481e-05
4.41726e-05
4.20152e-05
4.9154e-05
4.89944e-05
5.39956e-05
5.82935e-05
5.68909e-05
1.90926e-07
1.2122e-05
5.78474e-07
1.05597e-05
1.11286e-06
9.96215e-06
1.77809e-06
9.76579e-06
2.56851e-06
9.82617e-06
3.48227e-06
1.0096e-05
4.51941e-06
1.05562e-05
5.68157e-06
1.12006e-05
6.97235e-06
1.20318e-05
8.39858e-06
1.30593e-05
9.97192e-06
1.42991e-05
1.17109e-05
1.57732e-05
1.36433e-05
1.75083e-05
1.58086e-05
1.95349e-05
1.826e-05
2.18853e-05
2.10668e-05
2.45892e-05
2.43147e-05
2.76679e-05
2.81048e-05
3.11228e-05
3.25468e-05
3.49206e-05
3.77456e-05
3.89737e-05
4.37788e-05
4.31207e-05
5.06625e-05
4.71119e-05
5.06439e-05
5.83121e-05
2.21357e-07
1.19006e-05
5.90114e-07
1.01908e-05
1.08374e-06
9.46846e-06
1.6959e-06
9.15361e-06
2.42766e-06
9.0944e-06
3.28277e-06
9.24085e-06
4.2666e-06
9.57229e-06
5.38602e-06
1.00812e-05
6.64997e-06
1.07678e-05
8.0705e-06
1.16388e-05
9.66397e-06
1.27057e-05
1.14526e-05
1.39845e-05
1.34663e-05
1.54945e-05
1.57439e-05
1.72573e-05
1.83345e-05
1.92946e-05
2.12985e-05
2.16252e-05
2.47064e-05
2.42597e-05
2.86367e-05
2.71923e-05
3.31684e-05
3.03888e-05
3.83699e-05
3.37722e-05
4.42805e-05
3.72099e-05
5.08868e-05
4.05056e-05
4.34309e-05
5.80997e-05
2.67664e-07
1.16328e-05
6.36157e-07
9.82217e-06
1.10584e-06
8.99871e-06
1.67976e-06
8.57963e-06
2.36515e-06
8.40902e-06
3.17052e-06
8.43547e-06
4.10547e-06
8.63739e-06
5.18077e-06
9.0059e-06
6.40913e-06
9.53949e-06
7.8061e-06
1.02419e-05
9.39093e-06
1.11209e-05
1.11878e-05
1.21875e-05
1.32271e-05
1.34551e-05
1.55459e-05
1.49384e-05
1.81886e-05
1.66518e-05
2.12065e-05
1.86071e-05
2.46566e-05
2.08094e-05
2.8598e-05
2.32508e-05
3.30849e-05
2.59018e-05
3.81568e-05
2.87004e-05
4.38234e-05
3.15433e-05
5.00469e-05
3.42819e-05
3.67496e-05
5.6728e-05
3.1997e-07
1.13127e-05
7.00091e-07
9.4419e-06
1.1581e-06
8.54063e-06
1.70535e-06
8.03236e-06
2.35414e-06
7.76025e-06
3.11681e-06
7.67283e-06
4.0061e-06
7.7482e-06
5.03547e-06
7.97657e-06
6.22019e-06
8.35483e-06
7.57789e-06
8.88428e-06
9.12936e-06
9.56944e-06
1.08995e-05
1.04172e-05
1.29182e-05
1.14364e-05
1.522e-05
1.26366e-05
1.78445e-05
1.40273e-05
2.08352e-05
1.56164e-05
2.42375e-05
1.74071e-05
2.80948e-05
1.93936e-05
3.24421e-05
2.15546e-05
3.72968e-05
2.38457e-05
4.26472e-05
2.61929e-05
4.84377e-05
2.84912e-05
3.06277e-05
5.45596e-05
3.70358e-07
1.09422e-05
7.6786e-07
9.04433e-06
1.22218e-06
8.08624e-06
1.75111e-06
7.50345e-06
2.37068e-06
7.14069e-06
3.09601e-06
6.94757e-06
3.94183e-06
6.90247e-06
4.92336e-06
6.99504e-06
6.0573e-06
7.22092e-06
7.36231e-06
7.57932e-06
8.85973e-06
8.07198e-06
1.05743e-05
8.70255e-06
1.25347e-05
9.47606e-06
1.47727e-05
1.03985e-05
1.73237e-05
1.14764e-05
2.02244e-05
1.27157e-05
2.35108e-05
1.41205e-05
2.72147e-05
1.56897e-05
3.13567e-05
1.74127e-05
3.59387e-05
1.92636e-05
4.09343e-05
2.11973e-05
4.62772e-05
2.31483e-05
2.50514e-05
5.18535e-05
4.13135e-07
1.0529e-05
8.2884e-07
8.62865e-06
1.2836e-06
7.63148e-06
1.79953e-06
6.98758e-06
2.39499e-06
6.54523e-06
3.0867e-06
6.25595e-06
3.89041e-06
6.09879e-06
4.8222e-06
6.06322e-06
5.89927e-06
6.14383e-06
7.14047e-06
6.33811e-06
8.56694e-06
6.64545e-06
1.02027e-05
7.06677e-06
1.20745e-05
7.60421e-06
1.4212e-05
8.26114e-06
1.66462e-05
9.04217e-06
1.94088e-05
9.95315e-06
2.25288e-05
1.10004e-05
2.60292e-05
1.21892e-05
2.99209e-05
1.35209e-05
3.41961e-05
1.49885e-05
3.88194e-05
1.65738e-05
4.372e-05
1.82477e-05
1.99868e-05
4.87848e-05
4.45505e-07
1.00835e-05
8.76207e-07
8.19806e-06
1.33222e-06
7.17557e-06
1.83773e-06
6.48212e-06
2.41211e-06
5.97086e-06
3.07244e-06
5.59569e-06
3.83465e-06
5.33655e-06
4.71485e-06
5.18293e-06
5.73e-06
5.1286e-06
6.89843e-06
5.16958e-06
8.24052e-06
5.30327e-06
9.779e-06
5.52825e-06
1.15389e-05
5.84435e-06
1.35471e-05
6.25297e-06
1.58316e-05
6.75766e-06
1.84199e-05
7.36491e-06
2.13359e-05
8.08431e-06
2.4597e-05
8.92817e-06
2.82081e-05
9.90985e-06
3.21557e-05
1.10408e-05
3.64012e-05
1.23283e-05
4.08738e-05
1.37751e-05
1.53941e-05
4.54666e-05
4.66314e-07
9.6173e-06
9.06497e-07
7.75803e-06
1.36207e-06
6.72014e-06
1.85752e-06
5.98662e-06
2.41198e-06
5.4164e-06
3.04186e-06
4.96579e-06
3.76253e-06
4.61578e-06
4.58942e-06
4.35595e-06
5.53859e-06
4.17936e-06
6.62735e-06
4.08073e-06
7.87481e-06
4.05574e-06
9.30209e-06
4.10098e-06
1.09322e-05
4.21427e-06
1.27897e-05
4.39548e-06
1.48999e-05
4.64755e-06
1.72869e-05
4.97787e-06
1.99716e-05
5.39957e-06
2.29678e-05
5.93203e-06
2.62775e-05
6.60018e-06
2.98855e-05
7.43277e-06
3.37536e-05
8.46018e-06
3.7815e-05
9.71375e-06
1.12361e-05
4.19731e-05
4.7569e-07
9.14173e-06
9.1893e-07
7.31493e-06
1.37076e-06
6.26835e-06
1.85492e-06
5.50237e-06
2.38911e-06
4.88216e-06
2.98843e-06
4.36641e-06
3.66702e-06
3.93712e-06
4.43902e-06
3.58392e-06
5.31916e-06
3.29925e-06
6.32327e-06
3.07665e-06
7.46878e-06
2.91026e-06
8.77488e-06
2.79492e-06
1.02625e-05
2.72669e-06
1.19539e-05
2.70407e-06
1.38719e-05
2.7295e-06
1.60385e-05
2.81131e-06
1.84724e-05
2.96575e-06
2.11858e-05
3.21867e-06
2.41803e-05
3.60574e-06
2.74417e-05
4.1713e-06
3.09354e-05
4.96645e-06
3.4602e-05
6.04729e-06
7.48094e-06
3.83573e-05
4.74883e-07
8.66695e-06
9.14654e-07
6.87525e-06
1.35875e-06
5.82417e-06
1.82927e-06
5.03177e-06
2.34182e-06
4.36954e-06
2.9097e-06
3.79848e-06
3.54533e-06
3.30147e-06
4.26117e-06
2.86811e-06
5.07024e-06
2.49027e-06
5.98654e-06
2.16044e-06
7.02554e-06
1.87135e-06
8.20422e-06
1.61625e-06
9.5413e-06
1.38962e-06
1.10567e-05
1.18866e-06
1.2771e-05
1.01514e-06
1.47043e-05
8.77981e-07
1.68743e-05
7.95937e-07
1.92929e-05
8.00167e-07
2.19631e-05
9.35523e-07
2.48744e-05
1.26006e-06
2.79979e-05
1.84295e-06
3.12838e-05
2.76152e-06
4.10265e-06
3.46621e-05
4.6578e-07
8.20124e-06
8.96174e-07
6.44482e-06
1.32842e-06
5.39176e-06
1.78233e-06
4.57778e-06
2.27122e-06
3.8806e-06
2.8063e-06
3.26343e-06
3.39798e-06
2.7098e-06
4.05683e-06
2.20933e-06
4.79385e-06
1.75334e-06
5.62101e-06
1.33335e-06
6.55158e-06
9.40829e-07
7.60019e-06
5.67601e-07
8.78307e-06
2.0668e-07
1.01177e-05
-1.46047e-07
1.16225e-05
-4.8969e-07
1.33159e-05
-8.15346e-07
1.52147e-05
-1.10268e-06
1.73317e-05
-1.31666e-06
1.96726e-05
-1.40531e-06
2.2232e-05
-1.29937e-06
2.49894e-05
-9.14411e-07
2.79059e-05
-1.55034e-07
1.08205e-06
3.09265e-05
4.50524e-07
7.75071e-06
8.66738e-07
6.0284e-06
1.28313e-06
4.97521e-06
1.71712e-06
4.14365e-06
2.17999e-06
3.41772e-06
2.68076e-06
2.76272e-06
3.2277e-06
2.16286e-06
3.82934e-06
1.60775e-06
4.49451e-06
1.08817e-06
5.23303e-06
5.94798e-07
6.05583e-06
1.17981e-07
6.97508e-06
-3.51724e-07
8.00438e-06
-8.22659e-07
9.15858e-06
-1.3003e-06
1.04538e-05
-1.78486e-06
1.19066e-05
-2.26803e-06
1.35331e-05
-2.72902e-06
1.53472e-05
-3.13058e-06
1.73578e-05
-3.41587e-06
1.95658e-05
-3.50737e-06
2.19601e-05
-3.30866e-06
2.45147e-05
-2.70963e-06
-1.59285e-06
2.71896e-05
4.3168e-07
7.31894e-06
8.29431e-07
5.63035e-06
1.22589e-06
4.57861e-06
1.63671e-06
3.73271e-06
2.07125e-06
2.98321e-06
2.53638e-06
2.29762e-06
3.03828e-06
1.6609e-06
3.58329e-06
1.0627e-06
4.17808e-06
4.93268e-07
4.8303e-06
-5.75075e-08
5.54844e-06
-6.00214e-07
6.34215e-06
-1.14545e-06
7.22232e-06
-1.70278e-06
8.20108e-06
-2.27901e-06
9.29192e-06
-2.87564e-06
1.05095e-05
-3.48545e-06
1.18689e-05
-4.08826e-06
1.33847e-05
-4.64631e-06
1.50693e-05
-5.10038e-06
1.69298e-05
-5.36776e-06
1.89648e-05
-5.34357e-06
2.11617e-05
-4.90644e-06
-3.92714e-06
2.34961e-05
4.10761e-07
6.90802e-06
7.85946e-07
5.25497e-06
1.15847e-06
4.20598e-06
1.5431e-06
3.34807e-06
1.94743e-06
2.57897e-06
2.3762e-06
1.86879e-06
2.83356e-06
1.20346e-06
3.32357e-06
5.72572e-07
3.85081e-06
-3.41423e-08
4.42073e-06
-6.27491e-07
5.03953e-06
-1.21897e-06
5.71433e-06
-1.82017e-06
6.45335e-06
-2.44168e-06
7.2659e-06
-3.09149e-06
8.16275e-06
-3.77242e-06
9.15614e-06
-4.47873e-06
1.02598e-05
-5.19171e-06
1.14884e-05
-5.87477e-06
1.28569e-05
-6.4687e-06
1.43782e-05
-6.88888e-06
1.60604e-05
-7.02561e-06
1.79038e-05
-6.74973e-06
-5.92262e-06
1.98994e-05
3.87079e-07
6.52076e-06
7.35323e-07
4.90671e-06
1.08025e-06
3.86101e-06
1.4364e-06
2.99197e-06
1.80957e-06
2.20587e-06
2.20233e-06
1.47591e-06
2.6167e-06
7.89028e-07
3.05451e-06
1.34637e-07
3.51831e-06
-4.98067e-07
4.01153e-06
-1.12068e-06
4.5382e-06
-1.74553e-06
5.10314e-06
-2.38499e-06
5.71199e-06
-3.05046e-06
6.37135e-06
-3.75085e-06
7.08913e-06
-4.49019e-06
7.87488e-06
-5.26438e-06
8.74022e-06
-6.05687e-06
9.69916e-06
-6.8335e-06
1.07681e-05
-7.53737e-06
1.19644e-05
-8.085e-06
1.33046e-05
-8.36569e-06
1.48012e-05
-8.24623e-06
-7.58149e-06
1.64601e-05
3.56981e-07
6.16368e-06
6.73443e-07
4.59036e-06
9.8792e-07
3.54654e-06
1.31463e-06
2.66527e-06
1.65712e-06
1.86333e-06
2.0156e-06
1.11728e-06
2.38977e-06
4.14851e-07
2.77933e-06
-2.54978e-07
3.18501e-06
-9.03772e-07
3.6084e-06
-1.54401e-06
4.0517e-06
-2.18875e-06
4.5177e-06
-2.85098e-06
5.00979e-06
-3.54262e-06
5.53206e-06
-4.27322e-06
6.0896e-06
-5.04777e-06
6.68906e-06
-5.86377e-06
7.33942e-06
-6.70709e-06
8.05295e-06
-7.54689e-06
8.84599e-06
-8.33025e-06
9.7388e-06
-8.97769e-06
1.07544e-05
-9.3812e-06
1.1916e-05
-9.40777e-06
-8.90946e-06
1.32441e-05
3.146e-07
5.84914e-06
5.93651e-07
4.31147e-06
8.76229e-07
3.26398e-06
1.17426e-06
2.36719e-06
1.48832e-06
1.5491e-06
1.81581e-06
7.8974e-07
2.15376e-06
7.69406e-08
2.50002e-06
-6.01243e-07
2.85375e-06
-1.25751e-06
3.21509e-06
-1.90535e-06
3.58478e-06
-2.55851e-06
3.96406e-06
-3.23037e-06
4.35447e-06
-3.93317e-06
4.75792e-06
-4.67676e-06
5.17694e-06
-5.46682e-06
5.61531e-06
-6.30211e-06
6.07905e-06
-7.1708e-06
6.57785e-06
-8.04564e-06
7.12648e-06
-8.8788e-06
7.74584e-06
-9.59694e-06
8.46302e-06
-1.00983e-05
9.30972e-06
-1.02544e-05
-9.91909e-06
1.03194e-05
2.53189e-07
5.59613e-06
4.88594e-07
4.07622e-06
7.38891e-07
3.01367e-06
1.01111e-06
2.09495e-06
1.30096e-06
1.25915e-06
1.60209e-06
4.88706e-07
1.9088e-06
-2.29713e-07
2.21737e-06
-9.09817e-07
2.52579e-06
-1.56599e-06
2.83323e-06
-2.21288e-06
3.13953e-06
-2.86491e-06
3.44485e-06
-3.53576e-06
3.74937e-06
-4.23773e-06
4.05333e-06
-4.98071e-06
4.35714e-06
-5.77064e-06
4.66208e-06
-6.60709e-06
4.97127e-06
-7.48003e-06
5.29129e-06
-8.36564e-06
5.63408e-06
-9.22146e-06
6.01899e-06
-9.98166e-06
6.4742e-06
-1.05533e-05
7.03675e-06
-1.08168e-05
-1.06329e-05
7.7507e-06
1.6533e-07
5.43098e-06
3.50384e-07
3.89126e-06
5.70046e-07
2.79399e-06
8.21551e-07
1.84352e-06
1.09324e-06
9.87523e-07
1.37373e-06
2.08363e-07
1.65472e-06
-5.10653e-07
1.93132e-06
-1.18642e-06
2.20094e-06
-1.83565e-06
2.46242e-06
-2.4744e-06
2.71525e-06
-3.11774e-06
2.95902e-06
-3.77951e-06
3.19316e-06
-4.47185e-06
3.41679e-06
-5.20438e-06
3.62889e-06
-5.98284e-06
3.82882e-06
-6.80713e-06
4.01724e-06
-7.66847e-06
4.19762e-06
-8.54589e-06
4.37837e-06
-9.40199e-06
4.57555e-06
-1.01786e-05
4.81557e-06
-1.07932e-05
5.13693e-06
-1.11381e-05
-1.1086e-05
5.59007e-06
3.81736e-08
5.39289e-06
1.70564e-07
3.75886e-06
3.64758e-07
2.59985e-06
6.03692e-07
1.60472e-06
8.65011e-07
7.26421e-07
1.13122e-06
-5.77239e-08
1.39182e-06
-7.71194e-07
1.6415e-06
-1.43604e-06
1.87792e-06
-2.07205e-06
2.10031e-06
-2.69679e-06
2.30842e-06
-3.32586e-06
2.50188e-06
-3.97303e-06
2.6799e-06
-4.64999e-06
2.84113e-06
-5.36577e-06
2.98378e-06
-6.12563e-06
3.10601e-06
-6.92941e-06
3.20671e-06
-7.76908e-06
3.28678e-06
-8.62579e-06
3.35125e-06
-9.46631e-06
3.4121e-06
-1.02394e-05
3.49174e-06
-1.08728e-05
3.62616e-06
-1.12724e-05
-1.13268e-05
3.86704e-06
-1.24174e-07
5.51707e-06
-5.63283e-08
3.69093e-06
1.21011e-07
2.42267e-06
3.59058e-07
1.36684e-06
6.19476e-07
4.6625e-07
8.77585e-07
-3.15762e-07
1.12177e-06
-1.01534e-06
1.34771e-06
-1.66195e-06
1.55454e-06
-2.27888e-06
1.74275e-06
-2.88504e-06
1.91297e-06