/*--------------------------------*- C++ -*----------------------------------*\
| =========                 |                                                 |
| \\      /  F ield         | OpenFOAM: The Open Source CFD Toolbox           |
|  \\    /   O peration     | Version:  v2012                                 |
|   \\  /    A nd           | Website:  www.openfoam.com                      |
|    \\/     M anipulation  |                                                 |
\*---------------------------------------------------------------------------*/
FoamFile
{
    version     2.0;
    format      ascii;
    class       volScalarField;
    location    "0.85";
    object      alpha.water;
}
// * * * * * * * * * * * * * * * * * * * * * * * * * * * * * * * * * * * * * //

dimensions      [0 0 0 0 0 0 0];


internalField   nonuniform List<scalar> 
2268
(
1
1
1
1
1
1
1
1
1
1
1
1
1
1
0.999999
0.999982
0.995678
0.963386
0.956295
0.956295
0.956295
0.985184
0.999669
1
1
1
1
1
1
1
1
1
1
1
1
1
1
1
1
0.99995
0.99466
0.975114
0.964796
0.970002
0.986309
0.999669
1
1
1
1
1
1
1
1
1
1
1
1
1
1
1
1
1
1
1
1
1
1
0.999662
1
1
1
1
1
1
1
1
1
1
1
1
1
1
1
1
1
1
1
1
0.999999
0.999985
0.999675
1
1
1
1
1
1
1
1
1
1
1
1
1
1
1
1
1
1
1
1
0.999986
0.999819
0.999685
1
1
1
1
1
1
1
1
1
1
1
1
1
1
1
1
1
1
1
1
0.99998
0.999773
0.999734
1
1
1
1
1
1
1
1
1
1
1
1
1
1
1
1
1
1
1
0.999998
0.999993
0.999974
0.999875
1
1
1
1
1
1
1
1
1
1
1
1
1
1
1
1
1
1
0.999998
0.999993
0.999967
0.99979
0.999734
0.445871
0.894645
0.997241
0.995188
0.985077
0.985077
0.985086
0.987698
0.997221
0.995776
0.967856
0.942001
0.93123
0.926861
0.923924
0.921897
0.942162
0.946381
0.946451
0.692899
0.976194
0.99734
0.997276
0.997054
0.997337
0.997338
0.997335
0.997306
0.997222
0.997108
0.997022
0.996904
0.991509
0.950732
0.919782
0.905778
0.905157
0.961474
0.982172
0.997351
0.997309
0.997307
0.997305
0.997338
0.997337
0.997343
0.99728
0.997181
0.997062
0.996908
0.996725
0.996637
0.996517
0.987719
0.915532
0.90475
0.949708
0.996776
0.997247
0.997307
0.997327
0.994465
0.973734
0.94589
0.920876
0.914512
0.967474
0.996157
0.996664
0.996643
0.996524
0.996276
0.995768
0.991927
0.906147
0.89456
0.996598
0.996935
0.997257
0.996824
0.975542
0.72791
0.443515
0.292102
0.254355
0.446081
0.783403
0.993311
0.996299
0.996283
0.995783
0.994344
0.988384
0.977623
0.895739
0.996255
0.996621
0.996684
0.891111
0.759691
0.378923
0.111098
0.107202
0.107408
0.106043
0.119015
0.588454
0.943358
0.989943
0.984457
0.959858
0.951847
0.970695
0.93888
0.995903
0.982205
0.70381
0.35617
0.570046
0.435707
0.107202
0.107096
0.107202
0.107575
0.108818
0.119298
0.352147
0.546196
0.571554
0.427966
0.415272
0.834349
0.938172
0.994676
0.958561
0.210618
0.200079
0.398606
0.654817
0.493542
0.107181
0.107101
0.10749
0.202235
0.413033
0.12537
0.0720766
0.0899123
0.0524275
0.053526
0.304103
0.904535
1
1
1
1
1
1
1
1
1
1
1
1
1
1
1
1
0.999999
0.999996
0.999981
0.999952
0.999856
0.997478
0.944496
0.974701
0.955984
0.936048
0.922482
0.918204
0.922397
0.932836
0.9503
0.974122
0.994682
1
1
0.995521
0.99622
0.999398
0.999985
0.999968
0.999927
0.999862
0.999703
0.999223
0.987679
0.848954
0.371846
0.331368
0.291397
0.262878
0.249607
0.248792
0.257346
0.271764
0.288925
0.308577
0.340235
0.388398
0.455439
0.525873
0.597393
0.666574
0.717312
0.762494
0.830731
0.878275
0.917628
0.953723
0.950321
0.00239398
0.00161092
0.00136011
0.00100346
0.000677459
0.000435559
0.000269201
0.000159144
8.98993e-05
4.77588e-05
1.95475e-05
-2.94045e-06
-2.07728e-06
6.44807e-05
3.02601e-05
0.00165269
0.0298577
0.104277
0.16635
0.211457
0.355762
0.768327
0.944322
0.000245716
0.000167747
0.00014159
9.72981e-05
5.75936e-05
3.10856e-05
1.5825e-05
7.75165e-06
3.78721e-06
1.89706e-06
8.86561e-07
3.20205e-07
1.94275e-07
9.63142e-07
6.55962e-06
8.37356e-05
0.000196181
0.000828045
0.00263076
0.00663195
0.0740855
0.523532
0.59826
2.56809e-05
1.81837e-05
1.49893e-05
9.93686e-06
5.46692e-06
2.64437e-06
1.1642e-06
4.79779e-07
1.98444e-07
8.49558e-08
3.35678e-08
1.33417e-08
3.95318e-08
1.81315e-07
9.56962e-07
7.19946e-06
4.89761e-05
0.000269884
0.00120884
0.00456423
0.0748253
0.322704
0.285409
2.51269e-06
1.82196e-06
1.50079e-06
9.46331e-07
4.93822e-07
2.22315e-07
8.92941e-08
3.32142e-08
1.19963e-08
4.53891e-09
1.65562e-09
6.06521e-10
7.45666e-09
3.77121e-08
3.39643e-07
2.95368e-06
2.08663e-05
0.000130276
0.00067278
0.00203764
0.0123866
0.172283
0.28596
2.33156e-07
1.78928e-07
1.45112e-07
8.88316e-08
4.40544e-08
1.90259e-08
7.27047e-09
2.49831e-09
7.68308e-10
2.74902e-10
-2.39358e-25
3.70539e-28
-6.53623e-12
7.0817e-09
9.22488e-08
8.92605e-07
7.8918e-06
5.20937e-05
0.000250563
0.000770531
0.00288944
0.0674774
0.279078
2.06374e-08
1.67664e-08
1.34254e-08
8.12696e-09
3.94369e-09
1.71082e-09
6.63641e-10
2.02133e-10
0
0
-1.43707e-09
-4.62174e-09
-1.67987e-09
0
1.55747e-08
1.92126e-07
1.7471e-06
1.37438e-05
7.11789e-05
0.000284142
0.0012165
0.0230454
0.220922
1.75791e-09
1.51126e-09
1.20193e-09
7.68967e-10
4.15602e-10
1.90191e-10
6.0344e-11
2.94109e-26
-2.67572e-11
-1.04866e-09
-2.8073e-09
-5.21752e-09
-5.8788e-09
0
1.68098e-09
2.95178e-08
2.98435e-07
2.84702e-06
1.63437e-05
6.83363e-05
0.000263402
0.0017665
0.0853446
1.77035e-10
1.70847e-10
1.41511e-10
9.4314e-11
4.76018e-11
1.57563e-11
0
-1.00003e-10
-5.76853e-10
-1.38652e-09
-2.46584e-09
-3.84797e-09
-4.92496e-09
-3.69586e-09
4.70574e-25
3.40392e-09
4.41239e-08
4.25714e-07
2.66795e-06
1.20967e-05
4.31189e-05
5.8927e-05
0.000461932
1.85865e-11
1.84578e-11
1.51735e-11
1.06158e-11
6.76011e-12
7.48549e-13
-4.27424e-11
-2.13397e-10
-5.26818e-10
-9.93286e-10
-1.56448e-09
-2.26949e-09
-2.98884e-09
-3.39547e-09
-4.96737e-10
-6.27273e-12
5.40092e-09
5.83488e-08
3.48984e-07
1.44948e-06
4.78653e-06
1.36144e-05
3.20044e-06
3.79951e-12
4.2234e-12
3.73554e-12
2.31161e-12
2.60627e-13
-8.69451e-12
-5.55487e-11
-1.48205e-10
-3.00612e-10
-5.19661e-10
-7.87946e-10
-1.12101e-09
-1.50784e-09
-1.94888e-09
-1.48565e-09
-2.4012e-12
6.91491e-10
8.72918e-09
5.43759e-08
2.03022e-07
5.87002e-07
1.19286e-06
1.64222e-06
4.48508e-13
5.15144e-13
4.38639e-13
1.38632e-13
-6.39937e-13
-9.23506e-12
-3.04049e-11
-6.84208e-11
-1.28953e-10
-2.16648e-10
-3.28289e-10
-4.71379e-10
-6.51746e-10
-9.00614e-10
-9.72969e-10
-6.92743e-11
-6.00976e-12
1.11009e-09
7.82863e-09
2.91126e-08
7.37149e-08
1.37975e-07
1.98589e-07
3.21337e-14
3.67876e-14
2.74066e-14
2.56514e-15
-8.7764e-13
-4.23541e-12
-1.14984e-11
-2.4181e-11
-4.44993e-11
-7.48168e-11
-1.15547e-10
-1.70128e-10
-2.4324e-10
-3.52615e-10
-4.50627e-10
-2.56941e-10
-1.85269e-27
1.37864e-10
1.02344e-09
3.82893e-09
9.29698e-09
1.66617e-08
2.24958e-08
2.2064e-15
2.51734e-15
1.37805e-15
-2.995e-14
-3.71318e-13
-1.36151e-12
-3.38823e-12
-6.93942e-12
-1.27783e-11
-2.18456e-11
-3.47548e-11
-5.29291e-11
-7.85295e-11
-1.18635e-10
-1.6816e-10
-1.49674e-10
-1.94739e-14
6.74343e-12
1.45818e-10
4.88912e-10
1.16163e-09
2.06815e-09
2.74175e-09
1.52322e-16
1.68428e-16
2.82787e-17
-1.61415e-14
-1.0734e-13
-3.44713e-13
-8.20037e-13
-1.66834e-12
-3.11323e-12
-5.45772e-12
-8.99232e-12
-1.42237e-11
-2.19262e-11
-3.44077e-11
-5.25047e-11
-5.89506e-11
-1.905e-11
-1.9163e-27
1.76119e-11
7.19022e-11
1.81788e-10
3.06515e-10
3.91376e-10
1.01495e-17
1.04343e-17
-6.32199e-17
-4.72105e-15
-2.44009e-14
-7.23439e-14
-1.67767e-13
-3.42312e-13
-6.51259e-13
-1.17509e-12
-2.00878e-12
-3.3037e-12
-5.28793e-12
-8.59611e-12
-1.38915e-11
-1.81075e-11
-1.08055e-11
-2.74275e-28
1.32074e-12
7.04063e-12
1.99223e-11
3.59696e-11
6.15177e-11
6.34064e-19
4.74657e-19
-5.28162e-17
-1.03798e-15
-4.61781e-15
-1.29442e-14
-2.95281e-14
-6.06565e-14
-1.17876e-13
-2.19013e-13
-3.88167e-13
-6.63004e-13
-1.09946e-12
-1.84552e-12
-3.12475e-12
-4.52815e-12
-3.64587e-12
-5.1304e-13
-3.74234e-15
5.47313e-13
2.03041e-12
5.84636e-12
1.30857e-11
3.34461e-20
9.41019e-21
-1.50794e-17
-1.87675e-16
-7.49968e-16
-2.00937e-15
-4.52314e-15
-9.35559e-15
-1.85526e-14
-3.54284e-14
-6.49287e-14
-1.14841e-13
-1.96605e-13
-3.39385e-13
-5.97036e-13
-9.36405e-13
-9.128e-13
-3.16071e-13
0
3.56855e-14
1.63926e-13
5.94086e-13
1.92807e-12
7.03184e-22
-3.11149e-20
-3.08262e-18
-2.90679e-17
-1.06482e-16
-2.73784e-16
-6.07802e-16
-1.26285e-15
-2.54753e-15
-4.98136e-15
-9.39974e-15
-1.71403e-14
-3.01493e-14
-5.32512e-14
-9.65864e-14
-1.60884e-13
-1.7952e-13
-8.74827e-14
-2.11416e-16
-4.76159e-17
7.48733e-15
2.95844e-14
1.41125e-13
-3.57136e-23
-1.84347e-20
-5.13628e-19
-3.946e-18
-1.33807e-17
-3.30105e-17
-7.2053e-17
-1.49748e-16
-3.05841e-16
-6.09145e-16
-1.17681e-15
-2.19955e-15
-3.95131e-15
-7.0966e-15
-1.3167e-14
-2.29424e-14
-2.82692e-14
-1.67159e-14
-3.068e-15
-1.18375e-31
3.19692e-16
1.09688e-15
5.48239e-15
-5.33133e-22
-4.47324e-21
-7.33652e-20
-4.76316e-19
-1.50096e-18
-3.5428e-18
-7.56649e-18
-1.56412e-17
-3.21451e-17
-6.47847e-17
-1.27241e-16
-2.42032e-16
-4.40805e-16
-7.99013e-16
-1.50329e-15
-2.70277e-15
-3.57995e-15
-2.39685e-15
-7.10074e-16
-2.16166e-18
1.1941e-17
4.76615e-17
5.91705e-16
-1.46796e-22
-8.00148e-22
-9.21812e-21
-5.16222e-20
-1.51237e-19
-3.39923e-19
-7.06019e-19
-1.44187e-18
-2.96016e-18
-5.98977e-18
-1.18611e-17
-2.27648e-17
-4.16658e-17
-7.55341e-17
-1.42648e-16
-2.61023e-16
-3.63223e-16
-2.63873e-16
-9.80025e-17
-1.08644e-17
-3.53718e-36
1.60438e-17
6.00068e-16
-2.73697e-23
-1.18037e-22
-1.03428e-21
-5.05736e-21
-1.37512e-20
-2.92526e-20
-5.86705e-20
-1.17472e-19
-2.38927e-19
-4.81056e-19
-9.51228e-19
-1.82357e-18
-3.31909e-18
-5.95194e-18
-1.11456e-17
-2.04446e-17
-2.92342e-17
-2.23081e-17
-9.37524e-18
-1.80755e-18
6.87995e-36
1.5873e-17
5.97767e-16
-4.11142e-24
-1.49957e-23
-1.04605e-22
-4.50033e-22
-1.13219e-21
-2.26339e-21
-4.34981e-21
-8.46741e-21
-1.69051e-20
-3.3527e-20
-6.54733e-20
-1.239e-19
-2.21463e-19
-3.87595e-19
-7.08905e-19
-1.28027e-18
-1.83672e-18
-1.42833e-18
-6.38086e-19
-1.53737e-19
9.82785e-20
1.57009e-17
5.57921e-16
-5.26733e-25
-1.67643e-24
-9.59423e-24
-3.64989e-23
-8.46287e-23
-1.57752e-22
-2.88121e-22
-5.40408e-22
-1.04848e-21
-2.02541e-21
-3.8577e-21
-7.10772e-21
-1.22909e-20
-2.0649e-20
-3.61895e-20
-6.29028e-20
-8.79699e-20
-6.7392e-20
-3.03324e-20
-7.55699e-21
1.30103e-19
1.51e-17
5.01037e-16
-5.91034e-26
-1.66984e-25
-8.01166e-25
-2.70444e-24
-5.75436e-24
-9.91864e-24
-1.70705e-23
-3.05599e-23
-5.69983e-23
-1.05935e-22
-1.94035e-22
-3.42567e-22
-5.62861e-22
-8.8917e-22
-1.45683e-21
-2.36453e-21
-3.10243e-21
-2.2374e-21
-9.45992e-22
6.62782e-24
1.30108e-19
1.37826e-17
4.21609e-16
-5.8969e-27
-1.49385e-26
-6.10733e-26
-1.83395e-25
-3.56476e-25
-5.63326e-25
-9.05678e-25
-1.53235e-24
-2.71606e-24
-4.79183e-24
-8.30829e-24
-1.37976e-23
-2.10784e-23
-3.05038e-23
-4.52108e-23
-6.56753e-23
-7.64068e-23
-4.81872e-23
-1.5539e-23
2.94257e-22
1.25869e-19
1.16428e-17
3.07313e-16
-5.28353e-28
-1.20712e-27
-4.25848e-27
-1.1397e-26
-2.01465e-26
-2.89378e-26
-4.30806e-26
-6.81919e-26
-1.13476e-25
-1.87302e-25
-3.02045e-25
-4.61834e-25
-6.38949e-25
-8.19166e-25
-1.04982e-24
-1.28085e-24
-1.202e-24
-5.65948e-25
3.48649e-25
2.21109e-22
1.06344e-19
8.18635e-18
1.72859e-16
-4.28231e-29
-8.85104e-29
-2.72073e-28
-6.49868e-28
-1.04015e-27
-1.34655e-27
-1.83998e-27
-2.69657e-27
-4.15957e-27
-6.32377e-27
-9.30111e-27
-1.27733e-26
-1.54983e-26
-1.6849e-26
-1.75007e-26
-1.61581e-26
-1.00967e-26
-1.79523e-27
6.4745e-26
1.11863e-22
6.59473e-20
4.12295e-18
6.9204e-17
-3.15838e-30
-5.91322e-30
-1.59572e-29
-3.40495e-29
-4.9136e-29
-5.68656e-29
-7.06953e-29
-9.49176e-29
-1.33936e-28
-1.84449e-28
-2.42151e-28
-2.90248e-28
-2.96908e-28
-2.58143e-28
-1.96925e-28
-1.12856e-28
-2.49107e-29
5.01372e-29
4.4913e-27
3.45167e-23
2.52749e-20
1.33576e-18
1.94538e-17
-2.13106e-31
-3.61433e-31
-8.61123e-31
-1.64229e-30
-2.1281e-30
-2.1847e-30
-2.44958e-30
-2.98102e-30
-3.79575e-30
-4.65206e-30
-5.32368e-30
-5.38833e-30
-4.42562e-30
-2.8385e-30
-1.34941e-30
-2.8419e-31
1.24701e-32
3.74417e-30
2.26145e-28
5.06857e-24
5.23434e-21
2.77341e-19
4.59591e-18
-1.32237e-32
-2.03017e-32
-4.28847e-32
-7.31011e-32
-8.47241e-32
-7.65906e-32
-7.67885e-32
-8.37966e-32
-9.49416e-32
-1.01647e-31
-9.88032e-32
-8.12931e-32
-5.04394e-32
-2.12515e-32
-4.56133e-33
-1.28252e-34
3.0795e-33
9.90613e-32
1.20612e-29
1.40519e-25
5.91132e-22
4.18931e-20
1.12523e-18
-7.58967e-34
-1.05324e-33
-1.97839e-33
-3.01271e-33
-3.1109e-33
-2.45949e-33
-2.18633e-33
-2.11669e-33
-2.10375e-33
-1.92965e-33
-1.54909e-33
-9.91849e-34
-4.30531e-34
-9.99339e-35
-3.89047e-36
1.64568e-36
5.2559e-35
4.16931e-33
6.19748e-31
8.63461e-28
4.23826e-23
5.22927e-21
2.41088e-19
-4.05615e-35
-5.07656e-35
-8.49463e-35
-1.15436e-34
-1.0578e-34
-7.26708e-35
-5.68091e-35
-4.82808e-35
-4.14936e-35
-3.19568e-35
-2.0557e-35
-9.74416e-36
-2.68392e-36
-2.57801e-37
-5.17912e-39
4.10268e-38
1.05895e-36
1.23512e-34
3.11418e-32
8.34126e-29
2.38813e-24
4.9938e-22
3.07506e-20
-2.03514e-36
-2.28905e-36
-3.41395e-36
-4.13264e-36
-3.34697e-36
-1.986e-36
-1.35463e-36
-1.00027e-36
-7.32786e-37
-4.64166e-37
-2.31651e-37
-7.68024e-38
-1.18544e-38
-2.97997e-40
2.62478e-43
2.68329e-40
2.09132e-38
5.63014e-36
1.28298e-32
2.10651e-28
1.55454e-25
3.01015e-23
2.3237e-21
-9.68417e-38
-9.73316e-38
-1.29249e-37
-1.39001e-37
-9.90765e-38
-5.04939e-38
-2.98341e-38
-1.89541e-38
-1.16719e-38
-5.95461e-39
-2.22788e-39
-4.84461e-40
-3.58808e-41
-4.7406e-43
-1.4047e-64
2.0194e-42
6.19038e-40
2.68665e-37
2.16095e-32
3.62586e-28
1.86695e-26
1.08345e-24
1.06595e-22
-4.42375e-39
-3.93695e-39
-4.6403e-39
-4.41807e-39
-2.75993e-39
-1.20212e-39
-6.11376e-40
-3.31246e-40
-1.69224e-40
-6.81142e-41
-1.84333e-41
-2.4457e-42
-7.29964e-44
-7.20446e-46
6.5425e-48
1.43793e-44
1.09582e-41
1.08684e-38
1.44945e-32
3.51977e-29
1.56915e-27
1.84702e-26
9.06254e-25
-1.96646e-40
-1.52818e-40
-1.58958e-40
-1.33457e-40
-7.27984e-41
-2.69923e-41
-1.1758e-41
-5.39346e-42
-2.26019e-42
-7.0435e-43
-1.33034e-43
-9.94338e-45
-1.05799e-46
-7.34952e-49
-4.74985e-51
1.01365e-48
1.29787e-45
1.92481e-42
8.41544e-38
4.67973e-32
9.25454e-30
1.26775e-28
4.59005e-28
-8.62311e-42
-5.73384e-42
-5.22232e-42
-3.85214e-42
-1.83013e-42
-5.76202e-43
-2.14298e-43
-8.2813e-44
-2.82439e-44
-6.7205e-45
-8.59542e-46
-3.33021e-47
-1.37472e-49
-6.0839e-52
-2.80798e-54
-1.34431e-56
5.12348e-58
2.35773e-54
1.18564e-42
1.46146e-35
2.48889e-32
7.25311e-31
2.16332e-30
-3.77419e-43
-2.08831e-43
-1.65185e-43
-1.06799e-43
-4.41372e-44
-1.17887e-44
-3.73812e-45
-1.21453e-45
-3.36256e-46
-6.08781e-47
-5.22625e-48
-9.96103e-50
-1.93221e-52
-3.22423e-55
-5.12158e-58
-8.1735e-61
-1.33045e-63
-2.20847e-66
-3.71671e-69
1.22384e-49
8.73897e-43
6.60228e-40
9.33984e-39
0.91147
0.916759
0.934724
0.980386
0.838519
0.842814
0.966288
0.980522
0.943217
0.798835
0.827746
0.978452
0.765161
0.703617
0.753059
0.835901
0.041187
0.000752812
0.0309082
0.0950102
0.000752763
0.000233294
0.000192745
0.000192745
0.0117234
0.000592616
0.000208812
0.000192259
0.180864
0.0348004
0.000542625
0.00022058
0.255467
0.255467
0.0445904
0.000551621
0.255467
0.252742
0.246056
0.104824
0.0909253
0.225195
0.225251
0.210588
6.85341e-05
8.31625e-05
0.0214043
0.125768
-3.25675e-06
-2.13441e-07
-7.26135e-05
-0.000172223
3.49867e-07
2.15636e-08
7.15826e-08
-8.79712e-09
1.96697e-08
3.78144e-08
3.04415e-07
1.52379e-08
2.94457e-09
6.07857e-09
1.568e-08
3.03771e-08
4.25879e-10
4.66167e-10
2.20314e-10
1.21438e-09
6.73645e-11
8.57965e-11
9.14845e-11
8.29171e-11
2.07904e-11
2.39995e-11
2.63484e-11
3.3221e-11
4.12384e-12
5.37611e-12
6.26934e-12
7.64767e-12
3.56349e-13
5.92971e-13
7.53738e-13
8.79883e-13
1.45338e-14
2.70281e-14
4.55227e-14
6.18636e-14
1.87609e-15
3.91091e-15
8.27987e-15
1.51893e-14
1.95069e-15
4.01833e-15
8.49061e-15
1.57033e-14
1.92848e-15
3.95176e-15
8.4582e-15
1.55684e-14
1.79316e-15
3.68165e-15
7.94093e-15
1.49574e-14
1.60554e-15
3.32042e-15
7.34241e-15
1.50058e-14
1.35328e-15
2.84778e-15
6.60687e-15
1.47304e-14
9.83008e-16
2.08723e-15
5.01802e-15
1.11205e-14
5.42096e-16
1.1265e-15
2.68102e-15
5.27485e-15
2.08423e-16
4.27119e-16
9.37833e-16
1.58166e-15
5.7693e-17
1.21977e-16
2.63771e-16
7.10532e-16
1.56138e-17
4.49951e-17
1.55241e-16
1.03275e-15
5.4165e-18
2.79455e-17
1.42963e-16
8.51219e-16
1.61811e-18
1.29569e-17
1.37824e-16
2.37186e-16
2.41064e-19
3.02478e-18
3.68006e-17
5.78537e-17
2.17305e-20
4.31528e-19
5.55968e-18
6.41233e-18
1.32369e-21
4.31339e-20
4.6132e-19
2.7461e-19
1.66519e-23
5.17454e-22
3.55386e-21
1.45365e-21
2.99181e-27
3.23951e-25
3.2236e-24
9.16318e-25
3.38116e-31
4.05232e-33
4.02953e-37
4.87967e-53
4.43529e-40
1.75047e-43
-9.24423e-43
-1.50869e-39
0.992202
0.769508
0.200079
0.200079
0.210854
0.657515
0.696766
0.480169
0.107694
0.108259
0.34284
0.585384
0.197303
0.0522049
0.0522073
0.0521999
0.0524276
0.0584178
0.385227
0.983294
0.625173
0.264846
0.39237
0.683088
0.696766
0.696766
0.696766
0.251585
0.117226
0.336379
0.588403
0.298819
0.0522621
0.0521998
0.0523101
0.0669725
0.0574801
0.0606968
0.978495
0.856397
0.823097
0.793583
0.723227
0.408906
0.538379
0.692791
0.545967
0.156522
0.539404
0.591238
0.125248
0.0522691
0.0523102
0.0968702
0.100555
0.0758445
0.0605573
0.875048
0.796348
0.517907
0.0970798
0.0140097
0.0226331
0.227442
0.658222
0.65138
0.311883
0.642219
0.600092
0.0643643
0.0523438
0.0807406
0.101605
0.102095
0.106014
0.0779802
0.130642
0.0513965
0.00177748
0.0033361
0.00446415
0.0146222
0.363762
0.655123
0.647164
0.633839
0.642219
0.641665
0.16293
0.0559374
0.0588145
0.101537
0.0947638
0.110263
0.110263
0.000192027
0.000192743
0.00022843
0.000655181
0.00267576
0.111762
0.59603
0.647164
0.642972
0.641654
0.642219
0.641575
0.399958
0.0554525
0.0563537
0.0745495
0.00341357
0.0513033
0.110459
0.000192746
0.000214726
0.000330554
0.000767032
0.00300307
0.118281
0.56972
0.644679
0.425133
0.368866
0.643578
0.637876
0.476897
0.0569832
0.0585973
0.0492685
0.0020908
0.00491157
0.10858
0.000214767
0.00027493
0.000401956
0.000878313
0.0125344
0.137996
0.172798
0.0869752
0.0492992
0.34336
0.642402
0.244517
0.229865
0.0583829
0.07437
0.0468521
0.00154204
0.0030913
0.0590379
0.000265649
0.000410124
0.000613649
0.0138415
0.0350473
0.0314541
0.00635822
0.00763876
0.0456196
0.412712
0.241197
0.00296984
0.0325615
0.07437
0.0747084
0.0488559
0.00114503
0.000975353
0.000749978
0.000752183
0.000653502
0.00142808
0.0132307
0.0171138
0.00635822
0.00635805
0.00635802
0.145744
0.374781
0.00272113
0.00255923
0.00807159
0.0742807
0.0745557
0.0291029
0.000243921
0.000147253
0.000233179
0.146581
0.00330992
0.00323973
0.00601219
0.00665081
0.00660621
0.00648853
0.0475515
0.173077
0.0231219
0.000827555
0.0018644
0.0130275
0.0307234
0.0361291
0.00164568
7.75763e-05
0.00010131
0.000144884
0.169874
0.176541
0.120392
0.0512475
0.0860225
0.104795
0.119193
0.143372
0.105765
0.000120756
0.000588847
0.00325559
0.00617683
0.00129481
0.000297255
2.25625e-05
3.90796e-05
0.000149486
0.0028715
0.0190156
0.181738
0.194386
0.194386
0.194386
0.194043
0.180879
0.106151
5.79004e-06
6.31331e-05
0.000755697
0.00247871
0.000799264
1.78586e-05
2.43098e-05
8.98253e-06
2.51176e-05
0.000906233
0.0185198
-7.32327e-07
-1.72779e-06
0.0146822
0.0719868
0.0755534
0.0186533
2.68742e-07
2.68595e-07
5.88478e-07
7.59518e-05
0.000715687
0.000600245
2.0467e-06
3.94155e-06
4.45264e-06
4.08102e-06
8.90862e-06
0.00170387
0.0230401
1.00312e-08
7.29077e-09
1.00521e-08
5.32532e-08
1.73762e-07
2.52245e-07
1.70293e-07
1.10373e-06
2.78945e-06
0.000104598
0.000164612
1.35442e-06
7.99967e-07
2.88644e-06
3.03377e-06
7.98264e-07
2.73712e-06
0.00317976
0.0230401
3.54844e-08
6.19675e-09
7.92132e-07
1.61162e-06
1.35109e-06
2.23392e-07
4.7017e-08
8.4539e-06
1.92992e-05
2.28196e-05
6.43164e-06
1.80653e-07
4.5954e-07
3.72193e-06
3.43132e-06
1.01637e-09
-5.91647e-08
0.00551708
0.0230401
7.3567e-09
6.13857e-09
1.28515e-09
4.3543e-07
1.01813e-06
3.99516e-07
4.58232e-09
4.65989e-06
1.84193e-05
1.14276e-05
1.80795e-07
9.2316e-08
9.93052e-08
1.00916e-06
1.37653e-06
1.39237e-25
-1.31781e-08
0.0065522
0.0229916
1.37767e-10
1.87344e-09
1.25931e-09
1.75332e-10
2.05471e-10
2.25929e-10
4.63041e-09
2.27172e-10
1.1986e-05
1.42939e-05
1.91607e-07
8.59145e-08
8.42876e-08
1.07074e-07
1.65014e-08
1.47278e-08
-5.57688e-09
0.00340148
0.0229161
5.89617e-11
2.81791e-10
2.79415e-10
1.69541e-10
3.42318e-10
2.4297e-10
2.27172e-10
2.22452e-10
6.0396e-11
1.42957e-05
4.8739e-06
8.46368e-08
8.14814e-08
1.14998e-07
4.42191e-08
3.17262e-08
2.94109e-26
0.000640855
0.0227826
1.37563e-11
3.81499e-11
7.16575e-11
8.72062e-11
1.08794e-10
1.25009e-10
3.03826e-10
3.08421e-10
3.98543e-11
4.44194e-06
4.86485e-06
2.415e-06
5.51782e-08
4.56091e-08
4.59172e-08
5.2216e-08
4.99985e-25
5.91601e-05
0.0223991
1.66419e-12
5.10724e-12
1.31674e-11
2.33576e-11
4.66433e-11
6.23188e-11
4.62918e-11
3.98544e-11
3.99973e-11
3.99973e-11
3.11461e-06
3.04758e-06
5.76643e-07
4.75392e-08
4.58261e-08
5.91836e-08
5.4093e-09
2.8782e-09
0.0200956
1.32292e-13
5.76243e-13
1.92601e-12
6.05784e-12
1.96582e-11
2.26529e-11
2.27082e-11
3.74581e-09
6.40516e-08
1.14823e-07
1.2358e-07
7.93116e-07
5.87859e-07
7.42399e-08
6.25393e-08
6.2355e-08
9.08621e-09
2.58639e-09
0.0047113
4.48097e-14
2.60022e-13
1.20844e-12
5.51848e-12
2.51416e-11
2.35658e-11
2.30841e-11
1.07683e-08
1.2582e-07
1.26415e-07
6.36668e-08
8.81817e-09
7.75852e-08
5.11124e-08
6.7981e-08
5.97352e-08
7.85901e-09
2.2272e-09
0.000394579
5.57187e-14
3.98671e-13
2.24425e-12
9.87217e-12
4.53672e-11
6.10982e-11
2.42718e-11
2.68538e-11
5.22139e-08
1.26415e-07
7.06511e-08
4.88928e-09
1.61942e-09
1.34277e-09
4.94445e-08
3.57875e-08
3.85551e-09
2.3734e-09
1.22907e-09
7.17089e-14
7.45848e-13
5.43438e-12
2.30778e-11
8.75068e-11
1.56553e-10
1.3022e-10
1.0773e-10
1.39585e-09
2.11113e-08
1.887e-08
6.60873e-09
1.30396e-09
1.32664e-09
1.4771e-08
8.57782e-09
2.3553e-09
2.37226e-09
2.35258e-09
8.83093e-14
1.13979e-12
8.47423e-12
3.65157e-11
1.10719e-10
2.37521e-10
2.93239e-10
2.83619e-10
2.8321e-10
3.33284e-10
6.51549e-10
1.80567e-09
1.28752e-09
2.75967e-09
1.8529e-09
1.84348e-09
1.85177e-09
2.29486e-09
1.16141e-09
9.65531e-14
1.45104e-12
9.61447e-12
4.00731e-11
1.21927e-10
2.75641e-10
3.55025e-10
3.34163e-10
3.28629e-10
3.33971e-10
3.80024e-10
6.69572e-10
7.88518e-10
2.25147e-09
2.30567e-09
1.74576e-09
1.84336e-09
2.11696e-09
-1.37265e-07
8.28508e-14
1.61135e-12
7.91564e-12
4.31871e-11
1.4699e-10
2.9836e-10
3.66224e-10
5.2915e-10
4.21008e-10
3.55241e-10
4.33013e-10
6.03613e-10
7.40564e-10
9.91175e-10
7.81057e-10
7.90495e-10
2.42658e-08
2.57182e-09
0.000338347
4.97495e-14
1.16126e-12
4.46842e-12
5.60813e-11
2.16634e-10
2.61641e-10
5.45353e-10
2.51378e-09
6.13516e-09
4.25693e-09
1.00681e-09
6.32693e-10
7.47147e-10
7.50733e-10
7.58744e-10
2.26098e-08
1.28583e-07
3.40609e-09
0.00365868
2.29727e-14
5.0852e-13
1.61757e-12
4.47433e-11
1.7934e-10
3.01363e-10
7.0307e-10
5.18837e-09
7.44548e-09
7.41418e-09
4.18708e-09
1.0069e-09
7.50994e-10
7.58744e-10
7.67467e-10
9.0758e-08
1.35391e-07
1.00952e-08
0.00470141
2.01533e-14
2.28022e-13
1.09441e-12
2.53669e-11
1.89433e-10
8.57388e-10
8.19243e-10
1.42437e-09
2.26723e-09
6.53799e-09
1.15986e-08
7.01193e-09
2.08487e-09
7.6855e-10
7.74111e-10
1.14078e-07
1.35437e-07
1.40595e-08
0.00471362
6.26333e-14
4.14742e-13
1.74779e-12
1.92234e-11
2.46697e-10
2.09574e-11
8.02824e-09
2.61954e-09
2.68203e-09
1.18276e-08
1.41243e-08
1.41243e-08
5.03069e-09
8.29879e-10
2.28047e-08
1.18775e-07
1.14355e-07
1.85429e-08
0.00467988
1.93329e-13
1.19889e-12
2.89282e-12
7.01156e-12
8.60524e-11
1.83782e-11
3.25974e-08
7.27092e-08
5.12478e-08
2.08594e-08
8.99253e-09
9.08013e-09
4.77688e-09
1.00959e-09
1.21899e-09
8.09502e-08
4.73653e-08
2.66872e-08
0.00461011
2.75314e-13
2.24608e-12
5.3749e-12
7.97879e-12
2.27609e-11
1.80049e-11
2.3165e-08
1.80515e-07
1.42528e-07
1.06038e-08
1.17828e-09
1.5315e-09
1.34636e-09
9.98284e-10
6.43913e-09
9.90101e-10
1.17373e-09
2.30155e-08
0.00455644
1.92361e-13
2.2969e-12
7.95777e-12
1.22984e-11
1.78146e-11
1.78462e-11
8.4856e-09
1.80318e-07
7.56578e-08
1.17828e-09
1.01947e-09
9.88728e-10
9.8058e-10
9.88728e-10
9.90726e-10
9.83064e-10
1.20727e-05
1.01394e-07
0.00438504
8.2547e-14
1.50906e-12
7.38912e-12
1.48399e-11
2.50347e-11
1.83004e-11
1.8567e-11
6.63354e-09
3.99989e-07
1.52396e-07
2.94329e-06
1.02822e-05
9.17856e-06
2.4007e-06
1.04323e-09
9.89329e-10
4.6395e-05
6.8033e-07
0.00204851
1.54673e-14
5.31648e-13
4.74024e-12
1.51673e-11
4.7163e-11
1.24704e-10
1.1459e-10
1.17435e-10
2.15944e-10
1.00491e-05
1.64078e-05
1.65558e-05
1.64078e-05
9.4091e-06
8.61163e-08
2.62901e-05
9.82243e-05
1.95182e-05
6.25614e-05
2.235e-15
1.37993e-13
2.09553e-12
1.18726e-11
5.7254e-11
4.48677e-10
9.85302e-10
3.23653e-10
3.34035e-10
6.68088e-06
1.65558e-05
1.65558e-05
1.49582e-05
2.43583e-07
3.44771e-05
0.000107463
0.000107463
3.76977e-05
1.8113e-05
2.08704e-17
4.96631e-15
2.50842e-13
4.23193e-12
2.69884e-11
7.51649e-10
2.60147e-09
1.999e-09
7.85159e-10
8.21333e-10
6.29002e-06
1.39048e-05
6.31193e-06
4.76603e-08
2.39035e-07
8.84173e-05
8.34647e-05
9.51104e-06
1.7423e-05
9.38652e-22
1.57469e-17
3.96838e-15
3.77143e-13
6.45145e-12
2.21606e-10
2.60736e-09
3.24564e-09
1.61814e-09
6.51718e-10
3.41584e-09
4.66146e-07
5.92889e-08
3.96516e-08
7.0942e-07
1.75679e-10
2.88505e-11
2.87905e-11
0.000172016
9.04376e-28
5.48991e-21
3.76856e-17
1.21011e-14
6.93784e-13
1.95234e-11
5.81943e-10
2.31421e-09
1.71973e-09
5.63451e-10
6.23185e-10
9.22342e-10
6.05793e-09
2.72483e-08
5.40606e-09
2.88488e-11
1.91489e-11
2.93495e-11
0.000187693
3.5257e-36
1.23102e-28
3.73779e-21
4.73956e-17
1.36871e-14
6.26762e-13
1.09116e-11
2.5803e-10
6.03218e-10
5.59762e-10
5.59762e-10
6.57638e-10
2.02996e-09
2.09442e-09
5.81755e-10
1.78686e-10
1.71248e-11
-7.71192e-22
0.000168905
)
;

boundaryField
{
    leftWall
    {
        type            zeroGradient;
    }
    rightWall
    {
        type            zeroGradient;
    }
    lowerWall
    {
        type            zeroGradient;
    }
    atmosphere
    {
        type            inletOutlet;
        inletValue      uniform 0;
        value           nonuniform List<scalar> 
46
(
-3.77419e-43
-2.08831e-43
-1.65185e-43
-1.06799e-43
-4.41372e-44
-1.17887e-44
-3.73812e-45
-1.21453e-45
-3.36256e-46
-6.08781e-47
-5.22625e-48
-9.96103e-50
0
0
0
0
0
0
0
0
0
0
0
0
0
0
0
0
0
0
0
0
0
0
2.5803e-10
6.03218e-10
5.59762e-10
5.59762e-10
6.57638e-10
2.02996e-09
2.09442e-09
0
0
0
0
0.000168905
)
;
    }
    defaultFaces
    {
        type            empty;
    }
}


// ************************************************************************* //
