/*--------------------------------*- C++ -*----------------------------------*\
| =========                 |                                                 |
| \\      /  F ield         | OpenFOAM: The Open Source CFD Toolbox           |
|  \\    /   O peration     | Version:  v2012                                 |
|   \\  /    A nd           | Website:  www.openfoam.com                      |
|    \\/     M anipulation  |                                                 |
\*---------------------------------------------------------------------------*/
FoamFile
{
    version     2.0;
    format      ascii;
    class       surfaceScalarField;
    location    "0.85";
    object      alphaPhi0.water;
}
// * * * * * * * * * * * * * * * * * * * * * * * * * * * * * * * * * * * * * //

dimensions      [0 3 -1 0 0 0 0];
oriented        oriented;


internalField   nonuniform List<scalar> 
4432
(
-4.37995e-06
4.37995e-06
-8.86255e-06
4.48259e-06
-1.18929e-05
3.03038e-06
-1.40306e-05
2.13764e-06
-1.58049e-05
1.77433e-06
-1.74115e-05
1.60664e-06
-1.88683e-05
1.45679e-06
-2.01407e-05
1.27242e-06
-2.11957e-05
1.05499e-06
-2.20162e-05
8.20436e-07
-2.25942e-05
5.78036e-07
-2.29198e-05
3.25569e-07
-2.29632e-05
4.34484e-08
-2.27319e-05
-2.31302e-07
-2.21999e-05
-5.31942e-07
-2.12979e-05
-9.01041e-07
-1.95853e-05
-1.40482e-06
-1.70775e-05
-1.98359e-06
-1.42529e-05
-2.86995e-06
-1.02711e-05
-4.02722e-06
-5.58102e-06
-4.73541e-06
-1.35173e-06
-4.31285e-06
-1.35174e-06
-5.74602e-06
1.0126e-05
-9.75892e-06
8.4955e-06
-1.24151e-05
5.68657e-06
-1.45728e-05
4.29535e-06
-1.65298e-05
3.73126e-06
-1.82946e-05
3.37143e-06
-1.98267e-05
2.98896e-06
-2.10955e-05
2.54118e-06
-2.2092e-05
2.05146e-06
-2.2826e-05
1.55445e-06
-2.33144e-05
1.06643e-06
-2.35649e-05
5.76106e-07
-2.35836e-05
6.21369e-08
-2.33271e-05
-4.87768e-07
-2.27441e-05
-1.11495e-06
-2.1747e-05
-1.89811e-06
-2.01892e-05
-2.95562e-06
-1.7611e-05
-4.39002e-06
-1.40521e-05
-6.31556e-06
-9.6858e-06
-8.59968e-06
-4.85447e-06
-1.00261e-05
-9.26248e-07
-8.47962e-06
-2.278e-06
-5.51398e-06
1.56399e-05
-8.99648e-06
1.1978e-05
-1.16774e-05
8.36747e-06
-1.40479e-05
6.66586e-06
-1.61916e-05
5.87496e-06
-1.80889e-05
5.26875e-06
-1.97097e-05
4.60973e-06
-2.10389e-05
3.87035e-06
-2.20802e-05
3.09285e-06
-2.28532e-05
2.32737e-06
-2.33797e-05
1.59297e-06
-2.36671e-05
8.63474e-07
-2.37022e-05
9.72556e-08
-2.34514e-05
-7.38526e-07
-2.28688e-05
-1.6976e-06
-2.1874e-05
-2.89291e-06
-2.03223e-05
-4.50734e-06
-1.79836e-05
-6.72865e-06
-1.4623e-05
-9.67621e-06
-1.01838e-05
-1.30389e-05
-5.01574e-06
-1.51942e-05
-6.56416e-07
-1.28389e-05
-2.93447e-06
-5.07293e-06
2.07129e-05
-8.34074e-06
1.52458e-05
-1.11362e-05
1.1163e-05
-1.36921e-05
9.22172e-06
-1.59883e-05
8.1712e-06
-1.79889e-05
7.26932e-06
-1.96721e-05
6.2929e-06
-2.10356e-05
5.23391e-06
-2.20951e-05
4.1523e-06
-2.28798e-05
3.11205e-06
-2.34186e-05
2.1318e-06
-2.37205e-05
1.16542e-06
-2.37704e-05
1.47162e-07
-2.35399e-05
-9.69064e-07
-2.29906e-05
-2.24685e-06
-2.20534e-05
-3.83017e-06
-2.05934e-05
-5.9673e-06
-1.839e-05
-8.932e-06
-1.52014e-05
-1.28649e-05
-1.0879e-05
-1.73613e-05
-5.59231e-06
-2.04807e-05
-7.48369e-07
-1.76819e-05
-3.68232e-06
-4.63949e-06
2.53524e-05
-7.83816e-06
1.84445e-05
-1.07626e-05
1.40874e-05
-1.3484e-05
1.19432e-05
-1.59142e-05
1.06013e-05
-1.79998e-05
9.35489e-06
-1.97262e-05
8.01931e-06
-2.11039e-05
6.61163e-06
-2.2161e-05
5.20943e-06
-2.29391e-05
3.89018e-06
-2.34768e-05
2.66946e-06
-2.37869e-05
1.47554e-06
-2.38556e-05
2.15853e-07
-2.36597e-05
-1.16492e-06
-2.31726e-05
-2.73403e-06
-2.23415e-05
-4.66122e-06
-2.10489e-05
-7.25994e-06
-1.90843e-05
-1.08966e-05
-1.61877e-05
-1.57615e-05
-1.21284e-05
-2.14206e-05
-6.90618e-06
-2.57024e-05
-1.63367e-06
-2.29524e-05
-5.3157e-06
-4.23021e-06
2.95826e-05
-7.43515e-06
2.16494e-05
-1.05147e-05
1.71669e-05
-1.34028e-05
1.48313e-05
-1.59573e-05
1.31559e-05
-1.81134e-05
1.1511e-05
-1.98662e-05
9.77209e-06
-2.12403e-05
7.98575e-06
-2.22781e-05
6.24721e-06
-2.30357e-05
4.64777e-06
-2.35637e-05
3.19746e-06
-2.38801e-05
1.79196e-06
-2.39728e-05
3.08588e-07
-2.38255e-05
-1.31227e-06
-2.34266e-05
-3.13289e-06
-2.27457e-05
-5.34211e-06
-2.16856e-05
-8.32007e-06
-2.00426e-05
-1.25395e-05
-1.7538e-05
-1.82661e-05
-1.38909e-05
-2.50677e-05
-9.00508e-06
-3.05878e-05
-3.55599e-06
-2.84042e-05
-8.87317e-06
-3.84191e-06
3.34245e-05
-7.10629e-06
2.49138e-05
-1.03773e-05
2.0438e-05
-1.34402e-05
1.78941e-05
-1.611e-05
1.58258e-05
-1.832e-05
1.37209e-05
-2.00804e-05
1.15325e-05
-2.14329e-05
9.33824e-06
-2.24357e-05
7.25002e-06
-2.31614e-05
5.37351e-06
-2.36743e-05
3.71033e-06
-2.39973e-05
2.11499e-06
-2.41203e-05
4.31566e-07
-2.40352e-05
-1.3974e-06
-2.37497e-05
-3.41837e-06
-2.32599e-05
-5.83191e-06
-2.24914e-05
-9.08854e-06
-2.12418e-05
-1.37891e-05
-1.92053e-05
-2.03026e-05
-1.60443e-05
-2.82286e-05
-1.15645e-05
-3.50673e-05
-5.93595e-06
-3.40315e-05
-1.48062e-05
-3.41876e-06
3.68432e-05
-6.82303e-06
2.83181e-05
-1.03376e-05
2.39525e-05
-1.35829e-05
2.11394e-05
-1.63536e-05
1.85964e-05
-1.85958e-05
1.59631e-05
-2.03425e-05
1.32793e-05
-2.16555e-05
1.06512e-05
-2.26101e-05
8.20454e-06
-2.3296e-05
6.05944e-06
-2.37915e-05
4.20589e-06
-2.41236e-05
2.44706e-06
-2.42836e-05
5.91588e-07
-2.42745e-05
-1.40656e-06
-2.41267e-05
-3.56611e-06
-2.38676e-05
-6.09105e-06
-2.34503e-05
-9.50587e-06
-2.26718e-05
-1.45675e-05
-2.11927e-05
-2.17817e-05
-1.85758e-05
-3.08451e-05
-1.43386e-05
-3.93026e-05
-7.93828e-06
-4.04256e-05
-2.27401e-05
1.8112e-06
-2.91441e-06
-2.86336e-05
3.05473e-05
-6.15946e-05
3.29705e-05
-8.14859e-05
2.03729e-05
-8.88674e-05
7.53522e-06
-8.94048e-05
4.83235e-07
-8.78563e-05
-1.60275e-06
-8.54404e-05
-2.94749e-06
-8.06541e-05
-5.31934e-06
-7.22571e-05
-8.10855e-06
-6.02605e-05
-1.03665e-05
-4.8566e-05
-1.08017e-05
-3.99967e-05
-8.31325e-06
-3.34667e-05
-6.3353e-06
-2.51289e-05
-8.05239e-06
-1.40691e-05
-1.07768e-05
-2.01818e-06
-1.19752e-05
5.6065e-06
-7.65866e-06
5.57345e-06
-2.23616e-05
1.99775e-05
-5.8776e-05
6.69765e-05
-8.14332e-05
5.56118e-05
-8.8341e-05
2.72991e-05
-8.85083e-05
7.75365e-06
-8.6958e-05
-1.06018e-06
-8.54016e-05
-3.15218e-06
-8.30964e-05
-5.24541e-06
-7.88503e-05
-9.55659e-06
-7.21068e-05
-1.48403e-05
-6.331e-05
-1.915e-05
-5.40165e-05
-2.00846e-05
-4.6566e-05
-1.57541e-05
-4.00609e-05
-1.25766e-05
-3.15959e-05
-1.61459e-05
-2.06986e-05
-2.13792e-05
-9.33061e-06
-2.29755e-05
1.56039e-07
-1.67797e-05
5.8283e-06
-3.67435e-05
5.72653e-05
-6.51196e-05
9.53465e-05
-7.81922e-05
6.86814e-05
-8.21294e-05
3.12349e-05
-8.29499e-05
8.57811e-06
-8.18782e-05
-2.12511e-06
-8.0604e-05
-4.41919e-06
-7.8667e-05
-7.18206e-06
-7.51566e-05
-1.30569e-05
-6.94867e-05
-2.05004e-05
-6.19688e-05
-2.66584e-05
-5.39344e-05
-2.81089e-05
-4.7847e-05
-2.18382e-05
-4.31506e-05
-1.72765e-05
-3.67274e-05
-2.25743e-05
-2.66681e-05
-3.13648e-05
-1.53545e-05
-3.47378e-05
-5.65652e-06
-2.69655e-05
1.00449e-07
-3.91642e-05
9.64445e-05
-6.21386e-05
0.000118332
-7.1315e-05
7.78588e-05
-7.49481e-05
3.48779e-05
-7.58031e-05
9.71171e-06
-7.34291e-05
-2.52048e-06
-7.04165e-05
-4.13418e-06
-6.79461e-05
-5.71362e-06
-6.69659e-05
-1.05865e-05
-6.50127e-05
-2.23562e-05
-5.89623e-05
-3.2701e-05
-5.19399e-05
-3.51264e-05
-4.71671e-05
-2.66142e-05
-4.40686e-05
-2.03805e-05
-3.94553e-05
-2.7194e-05
-3.22202e-05
-3.8594e-05
-2.14492e-05
-4.57111e-05
-9.31747e-06
-3.9611e-05
-9.34408e-06
-3.67991e-05
0.000133256
-5.53738e-05
0.000136896
-6.25265e-05
8.50272e-05
-6.43944e-05
3.67603e-05
-6.2156e-05
9.55997e-06
-4.26391e-05
-1.26801e-06
-2.58265e-05
-1.29826e-06
-1.94975e-05
-9.86169e-07
-2.02886e-05
-2.39523e-06
-3.65786e-05
-5.74102e-06
-5.14869e-05
-1.65669e-05
-4.77295e-05
-3.86558e-05
-4.45157e-05
-2.98333e-05
-4.32221e-05
-2.16805e-05
-4.01654e-05
-3.0245e-05
-3.45899e-05
-4.41332e-05
-2.67934e-05
-5.34254e-05
-1.25695e-05
-5.33305e-05
-2.2377e-05
-3.18658e-05
0.000165105
-4.52878e-05
0.000150312
-4.51255e-05
8.43084e-05
-4.85884e-05
2.19601e-05
-3.88129e-05
5.32258e-06
-1.27464e-05
-4.97728e-07
-6.28731e-06
-3.28445e-07
-6.34668e-06
-9.26295e-07
-6.81654e-06
-1.97543e-06
-8.71026e-06
-4.18559e-06
-1.57216e-05
-8.14505e-06
-3.41169e-05
-1.51328e-05
-3.86985e-05
-2.38718e-05
-3.97185e-05
-1.99867e-05
-3.71531e-05
-3.06587e-05
-3.32016e-05
-4.20343e-05
-2.82762e-05
-5.19553e-05
-1.57672e-05
-6.50392e-05
-3.75558e-05
-2.5421e-05
0.000190459
-2.90893e-05
0.000150702
-1.614e-05
3.10316e-05
-2.22978e-05
9.95426e-06
-2.74653e-05
2.23765e-06
-4.73606e-06
-3.05239e-06
-3.55399e-06
-1.49238e-06
-4.28098e-06
-1.61221e-07
-4.90725e-06
-1.33107e-06
-5.28612e-06
-3.86076e-06
-5.13271e-06
-8.80616e-06
-7.89284e-06
-1.33132e-05
-1.50682e-05
-9.70689e-06
-2.03093e-05
-5.09051e-06
-1.71243e-05
-1.11606e-05
-1.40235e-05
-1.12065e-05
-1.93788e-05
-1.29463e-05
-1.62341e-05
-5.29052e-05
-5.32975e-05
-1.94184e-05
0.000209693
-8.6427e-06
0.000136769
-5.50007e-06
2.57496e-05
-5.99104e-06
9.72881e-06
-9.88223e-06
1.11102e-06
-6.06775e-06
-4.13294e-06
-1.49995e-06
-1.15656e-06
-2.27924e-06
5.68935e-07
-3.45178e-06
-1.08569e-07
-3.88128e-06
-3.6912e-06
-8.62241e-06
-1.29808e-05
-4.3945e-06
-3.68615e-05
-1.45255e-06
-6.49486e-06
-2.59913e-06
-5.52645e-07
-1.8949e-06
-1.47138e-06
-1.74651e-06
-2.96699e-06
-4.42597e-06
-4.44619e-06
-1.11608e-05
-1.93646e-05
-5.9327e-05
-5.59842e-06
4.24417e-05
-1.37402e-05
3.64598e-05
-2.2108e-05
3.23204e-05
-2.96011e-05
2.86324e-05
-3.57469e-05
2.47422e-05
-4.05294e-05
2.07457e-05
-4.41232e-05
1.68731e-05
-4.67353e-05
1.32633e-05
-4.85767e-05
1.00459e-05
-4.98884e-05
7.37117e-06
-5.08873e-05
5.20478e-06
-5.16388e-05
3.19852e-06
-5.21132e-05
1.06602e-06
-5.2383e-05
-1.13674e-06
-5.2598e-05
-3.35111e-06
-5.29445e-05
-5.74455e-06
-5.34725e-05
-8.97786e-06
-5.38035e-05
-1.42362e-05
-5.32558e-05
-2.23283e-05
-5.07111e-05
-3.33851e-05
-4.38035e-05
-4.61939e-05
-2.87411e-05
-5.49076e-05
-4.47313e-05
-2.31346e-06
-5.19385e-06
3.39217e-05
-1.31834e-05
2.99689e-05
-2.10224e-05
2.55505e-05
-2.78917e-05
2.15822e-05
-3.34102e-05
1.80754e-05
-3.77801e-05
1.50681e-05
-4.13652e-05
1.24608e-05
-4.45763e-05
1.02088e-05
-4.75065e-05
8.25702e-06
-4.93708e-05
6.51865e-06
-5.0391e-05
6.22501e-06
-5.10224e-05
3.63835e-06
-5.1645e-05
1.32085e-06
-5.24433e-05
-4.62074e-07
-5.36036e-05
-2.21527e-06
-5.5529e-05
-3.82024e-06
-5.86115e-05
-5.89568e-06
-6.25782e-05
-1.02669e-05
-6.68815e-05
-1.80154e-05
-7.03904e-05
-2.98451e-05
-7.03725e-05
-4.61273e-05
-6.19709e-05
-6.06096e-05
-5.09704e-05
-5.19092e-05
-2.10559e-06
1.54615e-07
-4.39311e-06
1.08762e-07
-6.22327e-06
4.91157e-08
-7.57083e-06
4.30489e-08
-8.89199e-06
4.62694e-08
-9.96249e-06
4.91139e-08
-1.11275e-05
5.27663e-08
-1.2322e-05
5.34266e-08
-1.34557e-05
4.61949e-08
-1.47729e-05
3.69284e-08
-1.66766e-05
4.64427e-08
-1.95776e-05
7.4604e-08
-2.30579e-05
8.63334e-08
-2.71908e-05
3.35891e-08
-3.26173e-05
-5.64566e-09
-3.89747e-05
1.26092e-07
-4.64134e-05
2.75217e-07
-5.67266e-05
-1.10612e-06
-6.86239e-05
-4.82978e-06
-7.9255e-05
-1.33881e-05
-8.48783e-05
-3.4923e-05
-7.8708e-05
-6.4623e-05
-5.77747e-05
-6.94248e-05
-2.06015e-07
3.10311e-08
-2.41675e-07
9.40778e-09
-3.1847e-07
1.08228e-08
-3.63679e-07
8.18008e-09
-3.73247e-07
5.7636e-09
-3.57624e-07
4.12717e-09
-3.24493e-07
3.03002e-09
-2.82398e-07
2.1514e-09
-2.42808e-07
1.42867e-09
-2.09936e-07
1.02582e-09
-1.66012e-07
9.26212e-10
-9.21833e-08
7.31317e-10
-1.12717e-08
1.24036e-10
-1.10992e-08
-2.67815e-11
-2.61441e-08
-3.71851e-10
-5.97223e-07
-1.50301e-08
-4.55399e-06
-8.69086e-08
-1.06438e-05
-1.31906e-07
-1.65921e-05
-1.62167e-07
-2.22604e-05
-7.08984e-07
-5.18888e-05
-1.15902e-05
-8.29539e-05
-6.13982e-05
-7.03198e-05
-6.75414e-05
-2.77325e-10
4.79888e-09
-6.51191e-09
1.31806e-09
-9.55096e-09
1.48226e-09
-1.01171e-08
7.39837e-10
-9.00384e-09
2.97653e-10
-7.17427e-09
1.30557e-10
-5.28434e-09
8.03092e-11
-3.7159e-09
5.74351e-11
-2.57942e-09
4.07868e-11
-1.72658e-09
2.92403e-11
-9.16394e-10
2.33631e-11
-2.48754e-10
1.08179e-11
-1.88121e-10
4.55446e-12
-4.69323e-10
1.49748e-12
-2.50506e-09
5.32133e-11
-2.76136e-08
-1.74264e-10
-1.55615e-07
-2.06619e-10
-4.39175e-07
3.18021e-09
-1.08756e-06
5.0509e-08
-2.90221e-06
8.61545e-08
-3.29931e-05
-8.26636e-06
-8.16834e-05
-5.53213e-05
-4.66043e-05
-2.40278e-05
1.28268e-09
4.72534e-10
5.60521e-10
1.95978e-10
3.78551e-10
1.8321e-10
1.24402e-10
6.424e-11
-4.62283e-11
1.14817e-11
-1.07571e-10
-1.89094e-12
-1.03335e-10
-1.21578e-12
-7.77741e-11
7.27346e-13
-5.34152e-11
1.10867e-12
-3.3252e-11
9.7411e-13
-1.49271e-11
8.70627e-13
-7.18311e-12
4.08279e-13
-1.41793e-11
5.50891e-13
-7.5493e-11
1.06783e-11
-3.78643e-10
1.04829e-10
-2.98209e-09
7.23208e-10
-1.8813e-08
5.09768e-09
-1.03467e-07
3.63358e-08
-4.15591e-07
1.63257e-07
-1.00696e-06
2.83919e-08
-2.86514e-05
-4.25834e-06
-5.78812e-05
-3.89831e-05
-4.20242e-05
-4.81677e-06
1.04947e-10
4.42722e-11
8.9991e-11
2.45257e-11
9.84955e-11
2.00284e-11
6.28197e-11
6.31528e-12
2.76982e-11
7.96156e-13
8.0055e-12
-4.27406e-13
3.77314e-13
-2.74271e-13
-1.31245e-12
-4.87306e-14
-1.28221e-12
6.03765e-14
-8.77581e-13
5.93636e-14
-3.89952e-13
1.29791e-13
-6.02332e-13
2.83884e-13
-2.86713e-12
7.27744e-13
-1.09508e-11
7.62229e-12
-5.92982e-11
6.94877e-11
-4.91596e-10
5.08014e-10
-2.60444e-09
3.17176e-09
-6.44373e-09
1.52213e-08
-3.03692e-09
5.16622e-08
-2.09253e-07
1.44865e-08
-6.08762e-06
-1.7566e-06
-4.35755e-05
-1.8974e-05
-4.20458e-05
-1.83178e-05
7.81184e-12
4.08663e-12
9.41099e-12
2.62556e-12
1.09792e-11
1.98983e-12
7.17133e-12
6.69451e-13
3.34075e-12
1.18645e-13
1.17422e-12
-1.30022e-14
2.95552e-13
-1.15459e-14
2.75066e-14
1.15515e-14
-2.75157e-14
4.91801e-14
-2.55855e-14
2.90747e-14
-2.05165e-14
1.2424e-13
-1.89029e-13
5.00617e-14
-1.73818e-13
6.32041e-13
1.62745e-12
3.14785e-12
1.85788e-11
2.29221e-11
1.33487e-10
1.5932e-10
6.51536e-10
8.4169e-10
2.0649e-09
4.29276e-09
-7.21727e-10
1.86911e-08
-6.86669e-08
2.93459e-08
-1.42912e-06
-7.64425e-07
-3.19368e-05
-6.00288e-06
-2.78905e-05
-4.71124e-05
6.36785e-13
3.66611e-13
8.96447e-13
2.64975e-13
1.01596e-12
1.95054e-13
6.53167e-13
7.7291e-14
3.06316e-13
2.427e-14
1.12371e-13
8.45926e-15
3.29654e-14
6.43268e-15
1.36626e-14
1.21975e-14
8.22598e-16
6.20065e-14
6.66761e-15
2.32104e-14
5.2055e-14
-6.34278e-14
3.18392e-14
-2.16438e-13
-9.25118e-13
-8.67177e-14
-7.98027e-14
1.00839e-12
2.36009e-12
5.90668e-12
2.03408e-11
3.7014e-11
1.25184e-10
1.68153e-10
9.26405e-10
8.3035e-10
4.34625e-09
4.39998e-09
-2.23011e-08
2.06693e-08
-8.05005e-07
-1.36868e-07
-1.2689e-05
-1.80141e-06
-2.12328e-05
-4.24658e-05
4.93953e-14
3.56844e-14
7.59821e-14
3.0568e-14
8.39799e-14
2.30834e-14
5.49739e-14
1.13566e-14
2.62456e-14
5.84568e-15
9.97365e-15
3.02885e-15
5.7744e-15
3.48594e-15
2.55749e-15
1.54144e-14
-1.23375e-16
-1.23279e-15
-6.66474e-16
-4.92678e-14
2.19569e-14
-1.37503e-13
5.75697e-14
-2.73476e-13
-5.34008e-14
-3.39282e-13
-4.48251e-13
2.19705e-13
-7.51967e-13
1.20913e-12
-2.16343e-12
6.34402e-12
-2.49068e-12
3.20225e-11
7.88786e-11
1.39431e-10
1.68425e-09
4.92926e-10
1.32346e-08
1.95918e-09
-1.63275e-07
6.48596e-09
-1.93311e-06
-3.1641e-07
-3.61477e-06
-3.87333e-05
3.53253e-15
4.35051e-15
6.06642e-15
4.02787e-15
6.70634e-15
3.02089e-15
4.43874e-15
1.06833e-15
2.09958e-15
1.3735e-15
1.42638e-15
1.06223e-15
8.69148e-16
4.04317e-15
-9.08687e-16
-4.69071e-15
-4.26149e-15
-2.75576e-14
-6.90206e-15
-6.84817e-14
-4.84806e-15
-1.28205e-13
7.22884e-15
-2.14904e-13
1.85803e-14
-3.01764e-13
-5.97884e-14
-2.53411e-13
-1.29536e-13
5.64936e-13
-4.03563e-13
8.15382e-13
-2.15058e-12
6.09931e-12
-7.99034e-12
3.94574e-11
-3.03792e-11
1.58262e-10
1.6119e-10
3.46399e-10
3.21266e-09
-6.37802e-11
-3.05446e-07
-1.247e-09
-2.52475e-07
-3.69514e-06
2.469e-16
7.80076e-16
4.66752e-16
8.36964e-16
5.0527e-16
7.07559e-16
3.44704e-16
4.69756e-16
2.34616e-16
2.58876e-16
2.09015e-16
9.82338e-16
-4.3514e-16
-1.97188e-15
-2.15962e-15
-1.00224e-14
-5.03436e-15
-2.54644e-14
-8.48874e-15
-5.00626e-14
-1.12691e-14
-8.34423e-14
-1.29739e-14
-1.30121e-13
-1.31072e-14
-1.87112e-13
-1.23605e-14
-2.35344e-13
-2.00674e-15
-3.84906e-14
1.92607e-13
2.26601e-13
2.32186e-12
1.16589e-12
1.86274e-11
8.80883e-12
9.18488e-11
3.71771e-11
2.00379e-10
9.29897e-11
-2.60822e-10
1.14988e-10
-1.33882e-09
-2.41451e-10
-1.13682e-09
-2.49343e-07
1.96384e-17
1.01959e-16
4.29734e-17
1.12946e-16
4.80988e-17
9.55293e-17
3.53309e-17
5.61531e-17
3.81342e-17
2.06249e-16
-8.14386e-17
-3.86823e-16
-5.71972e-16
-2.51103e-15
-1.6204e-15
-6.86621e-15
-3.39669e-15
-1.44205e-14
-5.95322e-15
-2.61099e-14
-9.07392e-15
-4.19782e-14
-1.30691e-14
-6.41137e-14
-1.83188e-14
-9.36565e-14
-2.60189e-14
-1.32738e-13
-2.33253e-14
-1.11628e-13
8.16515e-14
1.22099e-13
8.59494e-13
2.01332e-13
6.13556e-12
1.55116e-12
2.8873e-11
6.88303e-12
8.57657e-11
1.80532e-11
1.45027e-10
2.54356e-11
5.67391e-11
-7.95844e-12
-6.07432e-11
-7.00923e-10
1.52219e-18
8.02547e-18
3.68697e-18
8.89625e-18
4.01203e-18
7.09123e-18
5.34278e-18
3.99718e-18
-4.9292e-18
-2.72332e-17
-8.43345e-17
-3.97673e-16
-3.17266e-16
-1.33481e-15
-7.94915e-16
-3.08891e-15
-1.63976e-15
-6.04436e-15
-2.98872e-15
-1.06514e-14
-4.91258e-15
-1.71059e-14
-7.72267e-15
-2.62904e-14
-1.19114e-14
-3.92481e-14
-1.8852e-14
-5.89482e-14
-2.40155e-14
-6.94574e-14
-2.06592e-15
-5.38679e-15
1.55746e-13
4.55645e-14
1.22811e-12
2.18094e-13
5.94559e-12
1.05823e-12
1.85924e-11
2.90031e-12
3.71753e-11
4.18087e-12
4.0968e-11
-1.37569e-14
-5.67874e-12
2.65062e-11
1.09199e-19
5.7189e-19
2.75101e-19
6.40073e-19
3.62851e-19
4.75914e-19
3.73729e-19
2.62104e-18
-6.51045e-18
-3.59335e-17
-3.81975e-17
-1.75603e-16
-1.21982e-16
-4.86511e-16
-2.95217e-16
-1.05298e-15
-6.16817e-16
-2.01225e-15
-1.16985e-15
-3.54555e-15
-2.03765e-15
-5.7898e-15
-3.40201e-15
-9.08681e-15
-5.57133e-15
-1.39406e-14
-9.37337e-15
-2.1783e-14
-1.40933e-14
-3.00544e-14
-9.55665e-15
-1.8459e-14
2.18217e-14
1.41862e-14
1.79136e-13
2.57531e-14
9.52326e-13
1.38763e-13
3.12831e-12
4.01235e-13
6.5137e-12
6.14838e-13
7.58541e-12
8.38878e-14
-5.14229e-13
6.88249e-12
7.90369e-21
4.10854e-20
2.01707e-20
4.59073e-20
3.97282e-20
3.82229e-20
-1.67759e-19
-1.17118e-18
-2.70055e-18
-1.45824e-17
-1.22595e-17
-5.40917e-17
-3.66217e-17
-1.37248e-16
-8.8229e-17
-2.88958e-16
-1.88723e-16
-5.51572e-16
-3.72293e-16
-9.85603e-16
-6.82089e-16
-1.65168e-15
-1.1983e-15
-2.6675e-15
-2.05983e-15
-4.21873e-15
-3.62626e-15
-6.81432e-15
-6.02446e-15
-1.03309e-14
-6.30984e-15
-9.80511e-15
1.61718e-15
1.0179e-15
1.91939e-14
4.39294e-15
1.21407e-13
1.59717e-14
4.31385e-13
4.98644e-14
9.27871e-13
7.63484e-14
1.11518e-12
1.10705e-14
-5.06162e-14
1.08999e-12
5.78917e-22
2.86621e-21
1.81178e-21
3.14634e-21
2.69556e-21
2.60453e-20
-8.90439e-20
-6.05149e-19
-7.76456e-19
-4.03115e-18
-3.1231e-18
-1.30656e-17
-9.03305e-18
-3.16138e-17
-2.19107e-17
-6.59361e-17
-4.81385e-17
-1.2713e-16
-9.86144e-17
-2.32011e-16
-1.8915e-16
-4.00679e-16
-3.4792e-16
-6.68107e-16
-6.24082e-16
-1.09016e-15
-1.14121e-15
-1.81448e-15
-2.03189e-15
-2.9352e-15
-2.66205e-15
-3.48114e-15
-1.0016e-15
-1.17975e-15
2.42659e-15
9.64746e-16
1.39481e-14
1.69264e-15
5.18551e-14
5.29993e-15
1.14165e-13
8.35209e-15
1.40375e-13
1.91866e-15
2.34673e-15
1.4425e-13
4.23066e-23
1.91924e-22
1.72503e-22
2.00284e-22
-2.46392e-22
-2.28937e-21
-2.6054e-20
-1.6934e-19
-1.77333e-19
-8.73699e-19
-6.6241e-19
-2.60539e-18
-1.88055e-18
-6.12327e-18
-4.60806e-18
-1.27579e-17
-1.03945e-17
-2.4967e-17
-2.20527e-17
-4.66566e-17
-4.40975e-17
-8.31078e-17
-8.45779e-17
-1.43126e-16
-1.57599e-16
-2.40691e-16
-2.97881e-16
-4.11626e-16
-5.58927e-16
-6.9904e-16
-8.44013e-16
-9.53825e-16
-5.81269e-16
-5.91559e-16
2.54399e-16
1.29078e-16
1.42118e-15
1.94728e-16
5.55358e-15
4.62348e-16
1.23545e-14
9.96104e-16
1.57928e-14
1.36393e-15
1.67568e-15
1.82376e-14
3.03275e-24
1.21567e-23
1.17657e-23
1.57422e-23
-2.08716e-22
-1.83377e-21
-5.79081e-21
-3.55427e-20
-3.39179e-20
-1.5719e-19
-1.19959e-19
-4.4129e-19
-3.35802e-19
-1.01559e-18
-8.30688e-19
-2.11978e-18
-1.91902e-18
-4.21427e-18
-4.20087e-18
-8.06047e-18
-8.71834e-18
-1.47865e-17
-1.73617e-17
-2.62529e-17
-3.34568e-17
-4.53781e-17
-6.50731e-17
-7.94598e-17
-1.27278e-16
-1.40142e-16
-2.12284e-16
-2.10681e-16
-1.95785e-16
-1.74735e-16
-3.13601e-17
-2.50635e-17
1.30111e-16
3.38635e-17
5.11032e-16
3.41993e-17
1.22411e-15
8.34611e-17
1.95958e-15
1.53282e-16
2.371e-16
2.80137e-15
2.77765e-25
8.83559e-25
7.62637e-25
1.02489e-23
-6.09693e-23
-5.00957e-22
-1.0644e-21
-6.1208e-21
-5.58003e-21
-2.42022e-20
-1.88284e-20
-6.46249e-20
-5.19662e-20
-1.45986e-19
-1.2939e-19
-3.05048e-19
-3.04913e-19
-6.14963e-19
-6.85543e-19
-1.20062e-18
-1.46921e-18
-2.26049e-18
-3.02317e-18
-4.12279e-18
-5.99549e-18
-7.29463e-18
-1.19422e-17
-1.30197e-17
-2.41442e-17
-2.36408e-17
-4.3324e-17
-3.81123e-17
-4.80575e-17
-3.7922e-17
-1.88132e-17
-1.32685e-17
1.01612e-17
4.88909e-18
3.89157e-17
2.56934e-18
9.70267e-17
4.78297e-18
1.79573e-16
8.37642e-18
1.89399e-17
3.69465e-16
2.35515e-26
6.25921e-25
-8.23614e-26
-1.02097e-24
-1.2796e-23
-9.77723e-23
-1.67826e-22
-9.00846e-22
-8.01913e-22
-3.24918e-21
-2.58616e-21
-8.28106e-21
-7.01822e-21
-1.83402e-20
-1.751e-20
-3.82483e-20
-4.18781e-20
-7.7888e-20
-9.61746e-20
-1.54523e-19
-2.11625e-19
-2.97106e-19
-4.47441e-19
-5.53794e-19
-9.08132e-19
-9.97535e-19
-1.84241e-18
-1.80443e-18
-3.82087e-18
-3.3454e-18
-7.24074e-18
-5.67177e-18
-9.14e-18
-6.39758e-18
-5.00567e-18
-3.12085e-18
-1.34917e-20
-7.45255e-21
2.30965e-18
3.61612e-19
6.0781e-18
2.15972e-19
1.17367e-17
3.68703e-19
8.96389e-19
3.071e-17
-4.76402e-29
-1.14867e-27
-5.068e-26
-5.788e-25
-2.18568e-24
-1.55173e-23
-2.31409e-23
-1.15942e-22
-1.01655e-22
-3.85109e-22
-3.12891e-22
-9.36355e-22
-8.31216e-22
-2.02593e-21
-2.06651e-21
-4.19648e-21
-4.986e-21
-8.58537e-21
-1.16218e-20
-1.72048e-20
-2.60839e-20
-3.35646e-20
-5.63009e-20
-6.35181e-20
-1.16193e-19
-1.15682e-19
-2.38576e-19
-2.10579e-19
-5.03586e-19
-3.95125e-19
-9.93049e-19
-6.93207e-19
-1.37687e-18
-8.54177e-19
-9.10197e-19
-5.00283e-19
-1.85389e-19
-8.98154e-20
1.31793e-19
4.44294e-20
3.12268e-19
1.08031e-20
5.87962e-19
1.34024e-20
3.79674e-20
1.57249e-18
-7.44249e-28
-1.64031e-26
-1.26857e-26
-1.34007e-25
-3.18291e-25
-2.10622e-24
-2.82257e-24
-1.32391e-23
-1.14413e-23
-4.06523e-23
-3.34975e-23
-9.40014e-23
-8.66339e-23
-1.97658e-22
-2.13257e-22
-4.04156e-22
-5.15535e-22
-8.25099e-22
-1.21081e-21
-1.65799e-21
-2.75098e-21
-3.25629e-21
-6.01633e-21
-6.20581e-21
-1.25306e-20
-1.13321e-20
-2.5844e-20
-2.05785e-20
-5.50488e-20
-3.86866e-20
-1.11462e-19
-6.91747e-20
-1.65322e-19
-9.04864e-20
-1.23164e-19
-5.92567e-20
-4.03157e-20
-1.69594e-20
3.16099e-21
5.03793e-22
1.32395e-20
1.46073e-21
2.64855e-20
6.69009e-22
1.15305e-20
1.21168e-19
-2.1123e-28
-4.30527e-27
-2.31589e-27
-2.28059e-26
-4.0428e-26
-2.50894e-25
-3.06812e-25
-1.35442e-24
-1.1486e-24
-3.84636e-24
-3.1838e-24
-8.41713e-24
-7.96597e-24
-1.70899e-23
-1.92787e-23
-3.42466e-23
-4.63402e-23
-6.92203e-23
-1.08775e-22
-1.38283e-22
-2.48041e-22
-2.70902e-22
-5.44836e-22
-5.14922e-22
-1.13509e-21
-9.33248e-22
-2.33045e-21
-1.67268e-21
-4.9594e-21
-3.11271e-21
-1.0173e-20
-5.58248e-21
-1.57811e-20
-7.55581e-21
-1.27032e-20
-5.28509e-21
-5.19279e-21
-1.86586e-21
-6.28958e-22
-1.93636e-22
7.15172e-22
1.16598e-22
2.92587e-21
2.53797e-22
8.36048e-21
7.89209e-20
-3.99125e-29
-7.62795e-28
-3.44192e-28
-3.19225e-27
-4.53755e-27
-2.6629e-26
-2.98752e-26
-1.25003e-25
-1.03203e-25
-3.27758e-25
-2.69305e-25
-6.74592e-25
-6.47384e-25
-1.31292e-24
-1.52862e-24
-2.55775e-24
-3.62296e-24
-5.07316e-24
-8.42256e-24
-9.97784e-24
-1.90894e-23
-1.92907e-23
-4.16887e-23
-3.6155e-23
-8.59708e-23
-6.42497e-23
-1.73796e-22
-1.12174e-22
-3.65085e-22
-2.03573e-22
-7.47449e-22
-3.59479e-22
-1.18654e-21
-4.90385e-22
-9.99381e-22
-3.52852e-22
-4.60667e-22
-1.37828e-22
-9.67484e-23
-2.42844e-23
1.94412e-23
4.08215e-25
2.05845e-21
1.75566e-22
5.75225e-21
7.10135e-20
-5.9725e-30
-1.08613e-28
-4.34449e-29
-3.83889e-28
-4.53772e-28
-2.5425e-27
-2.61589e-27
-1.04598e-26
-8.32132e-27
-2.52452e-26
-2.03099e-26
-4.85213e-26
-4.65645e-26
-8.98067e-26
-1.06399e-25
-1.68608e-25
-2.4639e-25
-3.24982e-25
-5.61617e-25
-6.2244e-25
-1.2513e-24
-1.17324e-24
-2.68506e-24
-2.13937e-24
-5.41298e-24
-3.6734e-24
-1.0632e-23
-6.14646e-24
-2.17189e-23
-1.06748e-23
-4.35968e-23
-1.81382e-23
-6.9165e-23
-2.41901e-23
-5.91553e-23
-1.72233e-23
-2.88933e-23
-6.91405e-24
-7.56257e-24
-1.4643e-24
1.96039e-23
1.05579e-24
1.83334e-21
1.11381e-22
3.20677e-21
6.03632e-20
-7.49862e-31
-1.3165e-29
-4.75884e-30
-4.05445e-29
-4.06637e-29
-2.19765e-28
-2.06576e-28
-7.96441e-28
-6.03381e-28
-1.76265e-27
-1.36764e-27
-3.13885e-27
-2.96749e-27
-5.47901e-27
-6.50508e-27
-9.82183e-27
-1.4574e-26
-1.82027e-26
-3.2212e-26
-3.3544e-26
-6.96817e-26
-6.0799e-26
-1.44924e-25
-1.06191e-25
-2.81382e-25
-1.73092e-25
-5.28209e-25
-2.71971e-25
-1.02958e-24
-4.41102e-25
-1.98108e-24
-6.99667e-25
-3.0523e-24
-8.76832e-25
-2.56299e-24
-5.87958e-25
-1.25749e-24
-2.24756e-25
-3.39491e-25
-4.57768e-26
1.34225e-23
6.41743e-25
1.59594e-21
5.3687e-23
1.24015e-21
4.91198e-20
-8.12416e-32
-1.39597e-30
-4.58297e-31
-3.80977e-30
-3.27882e-30
-1.72715e-29
-1.47467e-29
-5.53347e-29
-3.94131e-29
-1.11818e-28
-8.23314e-29
-1.82958e-28
-1.67713e-28
-2.98607e-28
-3.49504e-28
-5.06161e-28
-7.49605e-28
-8.91822e-28
-1.58714e-27
-1.56049e-27
-3.28725e-27
-2.67792e-27
-6.52223e-27
-4.39938e-27
-1.19797e-26
-6.66355e-27
-2.10545e-26
-9.58155e-27
-3.82057e-26
-1.40472e-26
-6.83752e-26
-1.99361e-26
-9.84745e-26
-2.21622e-26
-7.75834e-26
-1.29541e-26
-3.56545e-26
-4.15794e-27
4.15221e-26
8.84864e-28
1.17582e-23
2.25864e-25
1.31029e-21
7.12563e-24
-1.19251e-22
3.72226e-20
-7.72393e-33
-1.31556e-31
-3.91523e-32
-3.21236e-31
-2.38619e-31
-1.23807e-30
-9.53353e-31
-3.51557e-30
-2.32255e-30
-6.45757e-30
-4.4357e-30
-9.62561e-30
-8.41326e-30
-1.4561e-29
-1.65099e-29
-2.31049e-29
-3.3519e-29
-3.8241e-29
-6.70922e-29
-6.26316e-29
-1.30982e-28
-1.00011e-28
-2.43404e-28
-1.51313e-28
-4.13882e-28
-2.07503e-28
-6.6352e-28
-2.64136e-28
-1.08468e-27
-3.34692e-28
-1.73051e-27
-3.98874e-28
-2.20176e-27
-3.57338e-28
-1.51189e-27
-1.55671e-28
-5.28381e-28
-2.74586e-29
2.28027e-26
1.02377e-28
1.01666e-23
-1.21467e-25
9.85837e-22
-2.17622e-23
-6.80277e-22
2.41905e-20
-6.51845e-34
-1.11354e-32
-2.98682e-33
-2.44601e-32
-1.57103e-32
-8.11539e-32
-5.58924e-32
-2.04627e-31
-1.23619e-31
-3.40135e-31
-2.14096e-31
-4.57934e-31
-3.74938e-31
-6.36422e-31
-6.86071e-31
-9.3561e-31
-1.30294e-30
-1.43644e-30
-2.43043e-30
-2.16832e-30
-4.39507e-30
-3.16013e-30
-7.48825e-30
-4.29666e-30
-1.14823e-29
-5.16776e-30
-1.62388e-29
-5.57543e-30
-2.28582e-29
-5.72476e-30
-3.05065e-29
-5.1612e-30
-3.11899e-29
-3.05993e-30
-1.59342e-29
-5.79533e-31
3.97913e-29
-5.86184e-32
1.48495e-26
-3.16705e-28
7.61348e-24
-2.91969e-25
6.10494e-22
-2.60535e-23
-5.37387e-22
1.19868e-20
-4.92402e-35
-8.53286e-34
-2.04495e-34
-1.69078e-33
-9.37394e-34
-4.87609e-33
-2.97453e-33
-1.09327e-32
-5.94861e-33
-1.6373e-32
-9.26704e-33
-1.9743e-32
-1.48581e-32
-2.49863e-32
-2.50973e-32
-3.36755e-32
-4.40339e-32
-4.73334e-32
-7.53784e-32
-6.47739e-32
-1.23842e-31
-8.43379e-32
-1.88745e-31
-1.00166e-31
-2.52762e-31
-1.01598e-31
-3.01844e-31
-8.76239e-32
-3.42908e-31
-6.6045e-32
-3.4489e-31
-3.68187e-32
-2.33864e-31
-7.34997e-33
-4.4951e-32
-4.53459e-35
3.62525e-30
-2.09885e-32
6.62765e-27
-2.24278e-28
4.14586e-24
-2.09024e-25
2.679e-22
-1.37083e-23
-2.22617e-22
4.17058e-21
-3.34835e-36
-5.95847e-35
-1.261e-35
-1.06617e-34
-5.07466e-35
-2.69266e-34
-1.43777e-34
-5.37323e-34
-2.58966e-34
-7.21968e-34
-3.60057e-34
-7.7341e-34
-5.24088e-34
-8.83553e-34
-8.08887e-34
-1.08013e-33
-1.29435e-33
-1.37118e-33
-2.00033e-33
-1.67145e-33
-2.9228e-33
-1.89902e-33
-3.87293e-33
-1.90646e-33
-4.35501e-33
-1.55313e-33
-4.14182e-33
-9.87075e-34
-3.44105e-33
-4.61701e-34
-2.13909e-33
-9.00982e-35
-5.10228e-34
-1.73649e-38
2.79692e-33
-1.7582e-35
2.16036e-31
-1.76921e-33
1.78675e-27
-5.28386e-29
1.38205e-24
-6.38344e-26
7.49908e-23
-3.86029e-24
-6.59367e-23
1.01314e-21
-2.05491e-37
-3.81486e-36
-7.01635e-37
-6.16356e-36
-2.49319e-36
-1.37094e-35
-6.31197e-36
-2.43594e-35
-1.02021e-35
-2.92459e-35
-1.25674e-35
-2.76191e-35
-1.64705e-35
-2.82356e-35
-2.29917e-35
-3.09753e-35
-3.31129e-35
-3.50217e-35
-4.54087e-35
-3.73305e-35
-5.7646e-35
-3.60677e-35
-6.42719e-35
-2.94665e-35
-5.78057e-35
-1.81335e-35
-4.03901e-35
-7.53879e-36
-2.08226e-35
-1.5424e-36
-4.73597e-36
5.58702e-41
5.30527e-36
-1.15587e-38
1.44955e-34
-7.23889e-37
9.40373e-33
-1.24984e-34
2.26825e-28
-1.94863e-30
2.4656e-25
-9.16543e-27
1.34329e-23
-7.07771e-25
-1.88932e-23
2.10329e-22
-1.13687e-38
-2.25351e-37
-3.5217e-38
-3.28443e-37
-1.11057e-37
-6.46073e-37
-2.51462e-37
-1.02212e-36
-3.63588e-37
-1.09219e-36
-3.94241e-37
-9.027e-37
-4.61552e-37
-8.18824e-37
-5.7689e-37
-7.97504e-37
-7.37852e-37
-7.91743e-37
-8.81815e-37
-7.23801e-37
-9.48268e-37
-5.78256e-37
-8.56788e-37
-3.67981e-37
-5.80102e-37
-1.58174e-37
-2.6524e-37
-3.56159e-38
-6.14786e-38
-6.64789e-40
-1.85855e-39
-2.55298e-42
9.74237e-38
-3.23324e-40
3.27171e-36
-3.89175e-38
4.31425e-34
-7.68944e-36
5.36767e-30
-1.33235e-32
2.37319e-26
-7.62287e-28
1.74353e-24
-1.0112e-25
-4.72412e-24
4.57313e-23
-5.63802e-40
-1.237e-38
-1.58932e-39
-1.62325e-38
-4.47256e-39
-2.83176e-38
-9.07167e-39
-3.98636e-38
-1.17076e-38
-3.77626e-38
-1.11128e-38
-2.71307e-38
-1.15373e-38
-2.1655e-38
-1.27869e-38
-1.85276e-38
-1.43315e-38
-1.59209e-38
-1.46516e-38
-1.22342e-38
-1.29871e-38
-7.84113e-39
-9.10946e-39
-3.69556e-39
-4.30224e-39
-1.00202e-39
-1.07996e-39
-8.61534e-41
-4.52221e-41
3.47712e-45
8.39634e-41
-1.85488e-43
1.38147e-39
-8.22556e-42
1.18184e-37
-1.34757e-39
1.87392e-35
-3.58961e-37
2.77098e-32
-7.47274e-34
1.42888e-27
-4.68694e-29
1.83513e-25
-1.07515e-26
-6.92942e-25
8.42504e-24
-2.4739e-41
-6.3635e-40
-6.39669e-41
-7.49389e-40
-1.6192e-40
-1.16098e-39
-2.95158e-40
-1.4523e-39
-3.39724e-40
-1.21478e-39
-2.81119e-40
-7.53902e-40
-2.57144e-40
-5.25291e-40
-2.50405e-40
-3.90741e-40
-2.42722e-40
-2.86497e-40
-2.08272e-40
-1.81271e-40
-1.47802e-40
-9.02285e-41
-7.66436e-41
-2.97217e-41
-2.29215e-41
-4.43575e-42
-2.37418e-42
-4.97854e-44
-5.11164e-44
-3.23701e-48
9.07058e-43
-1.5653e-45
2.33752e-41
-1.88006e-43
2.93705e-39
-6.76798e-41
7.82666e-37
-1.01569e-37
2.21412e-33
-1.34281e-33
6.6331e-29