/*--------------------------------*- C++ -*----------------------------------*\
| =========                 |                                                 |
| \\      /  F ield         | OpenFOAM: The Open Source CFD Toolbox           |
|  \\    /   O peration     | Version:  v2012                                 |
|   \\  /    A nd           | Website:  www.openfoam.com                      |
|    \\/     M anipulation  |                                                 |
\*---------------------------------------------------------------------------*/
FoamFile
{
    version     2.0;
    format      ascii;
    class       volScalarField;
    location    "0.85";
    object      epsilon;
}
// * * * * * * * * * * * * * * * * * * * * * * * * * * * * * * * * * * * * * //

dimensions      [0 2 -3 0 0 0 0];


internalField   nonuniform List<scalar> 
2268
(
0.0147166
0.0358706
0.0543007
0.0707603
0.0856138
0.099655
0.113498
0.127245
0.140659
0.153316
0.164732
0.174494
0.18239
0.18858
0.192107
0.193353
0.19342
0.193747
0.191682
0.184407
0.162517
0.11259
0.0382927
0.0197197
0.0291011
0.0372557
0.0444144
0.050988
0.0571172
0.0629235
0.068419
0.0735454
0.0781971
0.0822452
0.0855714
0.0881167
0.0899642
0.0908993
0.0911984
0.0914532
0.0923572
0.0940398
0.0953611
0.0923022
0.0774398
0.050607
0.0263551
0.0279619
0.0344019
0.0403369
0.04561
0.0503033
0.0545877
0.0585507
0.0622092
0.0655337
0.0684704
0.070967
0.0730111
0.0746697
0.0760127
0.0774166
0.0795468
0.0832317
0.0889678
0.0959258
0.100221
0.0934595
0.0750414
0.030671
0.0276728
0.0337356
0.0394629
0.044354
0.0485253
0.0522246
0.0556012
0.0587182
0.0615869
0.0641922
0.0665199
0.0685982
0.0705441
0.0725688
0.0751671
0.0791629
0.0856259
0.0953996
0.107934
0.119139
0.119021
0.101187
0.0331367
0.0275784
0.0337278
0.0395529
0.0443252
0.0482334
0.0516188
0.0546883
0.0575402
0.0602139
0.0627201
0.0650715
0.067331
0.0696667
0.0723956
0.076148
0.0819671
0.0912665
0.105374
0.124249
0.143977
0.153837
0.137878
0.0340296
0.0274725
0.0340097
0.0400672
0.0448053
0.048536
0.0517079
0.0545816
0.0572831
0.0598717
0.062375
0.0648242
0.0673093
0.0700453
0.0734458
0.0783029
0.0859505
0.0982888
0.117382
0.144166
0.175956
0.204489
0.210969
0.0335924
0.0272611
0.0344521
0.040799
0.0455106
0.0490843
0.0520831
0.054815
0.0574254
0.0599851
0.062531
0.0651053
0.0678192
0.0709321
0.0749586
0.0808896
0.090446
0.106216
0.131384
0.168529
0.217597
0.279024
0.377299
0.0320388
0.0268727
0.0349552
0.0415882
0.0462468
0.0496674
0.0525219
0.0551532
0.0577155
0.0602828
0.0628949
0.0655996
0.0685255
0.0719789
0.076588
0.0835916
0.09522
0.115002
0.147699
0.19806
0.268556
0.371225
0.741632
0.675138
0.888744
1.25931
1.54652
1.73805
1.85296
1.96367
2.09495
2.24207
2.3505
2.3527
2.17402
1.82014
1.48608
1.31312
1.20378
1.01113
0.597132
0.162817
0.854223
1.20148
1.09762
1.00608
0.981908
0.966947
0.971744
0.993399
1.02457
1.04451
1.02698
0.948822
0.820518
0.708334
0.650334
0.615662
0.547938
0.395468
0.145978
1.11665
1.1807
1.02055
0.989572
0.990134
0.948645
0.886328
0.853203
0.854058
0.862722
0.850074
0.788184
0.673054
0.570498
0.52502
0.50507
0.464881
0.367676
0.186873
1.29448
1.16925
1.06602
1.13158
1.18053
1.11357
0.959599
0.857414
0.827805
0.829177
0.824855
0.777004
0.65086
0.521679
0.46556
0.446275
0.419954
0.358186
0.22703
1.40505
1.16875
1.15698
1.33795
1.49229
1.4651
1.19163
0.968016
0.875074
0.852376
0.854631
0.829198
0.689106
0.513142
0.43303
0.408289
0.386855
0.34399
0.235051
1.44677
1.15242
1.23021
1.54291
1.8818
2.06188
1.72093
1.30702
1.05376
0.9518
0.955092
0.938191
0.777894
0.538261
0.424725
0.393305
0.36999
0.325197
0.222376
1.42852
1.10321
1.24716
1.70536
2.17746
2.52438
2.40196
1.85089
1.31934
1.12149
1.15636
1.1251
0.936665
0.601973
0.442822
0.410466
0.383601
0.315977
0.210768
1.37805
1.03619
1.24283
1.6955
2.12796
2.3773
2.3807
2.01573
1.48656
1.2081
1.21691
1.24923
1.15002
0.715685
0.498955
0.505791
0.504921
0.331865
0.206883
0.027609
0.0259598
0.035641
0.0426045
0.0471356
0.0503563
0.0530621
0.0556199
0.0581801
0.06081
0.0635474
0.0664472
0.0696629
0.0735697
0.0789908
0.0876032
0.102504
0.128689
0.173079
0.242232
0.336259
0.449707
0.600704
0.0267599
0.026106
0.0364306
0.0432947
0.0475661
0.0506134
0.0532782
0.055894
0.058566
0.0613278
0.0642152
0.0673048
0.0708054
0.0752225
0.081752
0.0929856
0.113871
0.152323
0.219393
0.322784
0.453083
0.59344
0.771684
0.0279718
0.0265681
0.0369407
0.0435909
0.0476721
0.0506102
0.0532612
0.0559279
0.0586878
0.0615682
0.0645995
0.0678816
0.0716453
0.0766
0.0845406
0.0995195
0.129409
0.184356
0.278551
0.413931
0.564476
0.711698
0.923487
0.057955
0.0285284
0.0382623
0.0444691
0.0482927
0.0510834
0.0536483
0.0562637
0.0589952
0.0618596
0.0648756
0.068147
0.071921
0.0769559
0.0851305
0.105719
0.16291
0.24627
0.387755
0.557709
0.69615
0.762367
0.859261
0.0605857
0.0381075
0.044697
0.0499318
0.055038
0.0599726
0.0651503
0.070689
0.076535
0.082911
0.0910399
0.103081
0.120997
0.145771
0.177555
0.211005
0.236917
0.327813
0.499083
0.661742
0.715257
0.676058
0.689997
0.0776274
0.0507071
0.0515241
0.0547262
0.0587859
0.0639798
0.0704838
0.0781214
0.0867617
0.0971118
0.111508
0.13377
0.168299
0.219936
0.295607
0.408543
0.573451
0.706082
0.710075
0.688636
0.591429
0.532236
0.518359
0.098097
0.0616205
0.0587294
0.0600532
0.0627862
0.0670669
0.0731384
0.081127
0.0911729
0.104347
0.123551
0.153711
0.201484
0.274675
0.379626
0.51253
0.641965
0.694712
0.659282
0.634498
0.512415
0.464423
0.455272
0.115595
0.0702946
0.0651506
0.0651618
0.0668041
0.0698955
0.0747268
0.0816609
0.0913756
0.105307
0.126378
0.159731
0.212559
0.29281
0.40401
0.532605
0.634421
0.658527
0.640191
0.652366
0.54208
0.476068
0.472438
0.128553
0.0765734
0.0698908
0.06906
0.0699859
0.0721653
0.0758276
0.0814548
0.0898665
0.102736
0.122925
0.155059
0.205692
0.2817
0.385058
0.501884
0.593366
0.624219
0.653105
0.767992
0.668558
0.532658
0.52018
0.137838
0.0804717
0.0726651
0.0713535
0.0719438
0.0736443
0.0765404
0.0810841
0.0880923
0.0990473
0.116656
0.144886
0.189153
0.25508
0.344284
0.446312
0.532707
0.577701
0.630947
0.817847
0.961031
0.643744
0.581321
0.144566
0.0825156
0.0738471
0.0722636
0.0727518
0.0742899
0.0768026
0.0806313
0.0864856
0.0956181
0.110163
0.13346
0.17001
0.224116
0.297589
0.383921
0.464062
0.518462
0.575024
0.746657
1.06825
1.04891
0.661974
0.149341
0.0832714
0.0739123
0.0721571
0.0726502
0.0742009
0.0765956
0.0800455
0.0851085
0.0927906
0.10476
0.123571
0.152657
0.195601
0.254368
0.325584
0.397346
0.455476
0.5114
0.634086
0.918024
1.30067
1.23449
0.152401
0.0831134
0.0732063
0.0713318
0.0718699
0.0735135
0.0759448
0.0792587
0.0838613
0.0905248
0.100525
0.115787
0.138891
0.172645
0.218905
0.27629
0.338048
0.394871
0.449365
0.536169
0.719091
1.03891
1.42298
0.153852
0.082284
0.0719679
0.0700074
0.0705973
0.0723558
0.0748943
0.0782171
0.0826013
0.0886184
0.0972214
0.10984
0.128387
0.154998
0.191297
0.237031
0.288719
0.340717
0.39205
0.457189
0.568621
0.760076
1.03562
0.153808
0.0809531
0.0703683
0.0683469
0.0689783
0.0708399
0.0734987
0.0768954
0.0812073
0.0868459
0.0945098
0.105246
0.120454
0.14173
0.170421
0.20682
0.249335
0.294767
0.341288
0.393602
0.465312
0.573198
0.725064
0.152442
0.0792526
0.0685359
0.0664757
0.0671309
0.0690649
0.0718219
0.0753007
0.0796063
0.0850301
0.0920774
0.101506
0.11433
0.131726
0.154763
0.183937
0.218651
0.257197
0.297943
0.341627
0.392772
0.457824
0.540395
0.14998
0.0772979
0.0665752
0.0644954
0.0651541
0.067122
0.0699356
0.0734692
0.077778
0.0830665
0.0896983
0.0982187
0.109356
0.123967
0.142873
0.166588
0.194991
0.227214
0.262064
0.298973
0.338746
0.383068
0.432813
0.146674
0.0751972
0.0645761
0.0624924
0.0631344
0.0650962
0.0679175
0.0714599
0.0757468
0.0809215
0.0872467
0.0951145
0.105047
0.11766
0.133569
0.153222
0.176695
0.203566
0.233027
0.264253
0.296769
0.33043
0.364968
0.142787
0.0730523
0.0626178
0.060542
0.0611485
0.0630666
0.0658468
0.0693467
0.0735696
0.0786178
0.0846832
0.0920501
0.101093
0.112254
0.125983
0.142638
0.162351
0.184923
0.209819
0.236299
0.263591
0.291002
0.317922
0.138576
0.0709566
0.0607699
0.058709
0.0592631
0.061105
0.0638004
0.0672084
0.0713214
0.0762142
0.0820307
0.0889806
0.0973356
0.107413
0.119538
0.13398
0.150868
0.170104
0.191332
0.213965
0.237278
0.260522
0.283062
0.134282
0.0689917
0.0590914
0.0570479
0.0575349
0.0592736
0.0618478
0.0651218
0.0690825
0.0737877
0.0793491
0.0859257
0.0937189
0.10296
0.113882
0.126684
0.141465
0.158174
0.17656
0.196178
0.21643
0.23667
0.256335
0.130121
0.0672255
0.0576299
0.0556023
0.0560096
0.0576237
0.0600483
0.0631548
0.0669287
0.0714178
0.0767127
0.0829391
0.0902513
0.0988217
0.108822
0.120394
0.133612
0.148437
0.164684
0.182013
0.199952
0.217973
0.235606
0.126276
0.0657116
0.0564208
0.0544036
0.0547203
0.0561936
0.0584476
0.0613621
0.064924
0.0691755
0.0741942
0.0800844
0.0869701
0.0949855
0.104261
0.114901
0.126958
0.140397
0.155074
0.170721
0.186965
0.203378
0.219571
0.122889
0.0644887
0.0554869
0.0534715
0.0536877
0.0550081
0.057077
0.0597831
0.0631162
0.067116
0.0718529
0.0774181
0.0839169
0.0914602
0.100153
0.110076
0.121269
0.1337
0.147252
0.161709
0.176766
0.192076
0.207307
0.12006
0.063581
0.0548391
0.0528138
0.0529206
0.0540793
0.0559535
0.0584412
0.0615357
0.0652764
0.0697301
0.0749806
0.0811228
0.0882544
0.0964665
0.105829
0.116375
0.128079
0.140846
0.154495
0.168777
0.183398
0.198071
0.117851
0.0629991
0.0544775
0.052428
0.0524171
0.0534079
0.0550818
0.0573457
0.060197
0.0636759
0.0678478
0.0727932
0.0786017
0.0853652
0.0931691
0.10208
0.112133
0.123313
0.135542
0.148674
0.162497
0.17676
0.191209
0.11629
0.0627424
0.054394
0.0523042
0.0521678
0.0529862
0.0544568
0.0564952
0.0591021
0.0623195
0.0662123
0.0708601
0.0763509
0.0827751
0.0902181
0.0987497
0.108411
0.119201
0.131064
0.143881
0.157474
0.171625
0.186107
0.115384
0.0628021
0.0545748
0.0524277
0.0521589
0.0528018
0.0540684
0.0558814
0.0582448
0.0612022
0.0648188
0.0691738
0.0743555
0.0804558
0.0875632
0.0957541
0.105081
0.115559
0.127156
0.13978
0.153287
0.167489
0.182179
0.115125
0.063166
0.0550052
0.0527835
0.0523759
0.0528417
0.0539051
0.0554943
0.0576164
0.0603156
0.0636573
0.0677209
0.0725953
0.0783745
0.0851521
0.0930129
0.102023
0.112215
0.123583
0.136065
0.149546
0.163876
0.178871
0.11551
0.0638251
0.0556743
0.0533607
0.052809
0.0530972
0.053959
0.0553271
0.0572103
0.059653
0.0627199
0.0664898
0.0710519
0.0765022
0.0829391
0.0904558
0.0991318
0.109021
0.120139
0.132461
0.145924
0.160402
0.175728
0.116559
0.0647819
0.0565817
0.0541585
0.0534573
0.0535678
0.0542304
0.0553805
0.0570276
0.0592152
0.0620061
0.0654773
0.0697171
0.0748221
0.0808939
0.0880334
0.0963319
0.105861
0.116675
0.128791
0.14217
0.156724
0.172316
0.118342
0.0660616
0.0577453
0.0551921
0.0543346
0.0542667
0.054732
0.0556673
0.0570814
0.0590151
0.0615283
0.0646944
0.0685988
0.0733367
0.0790109
0.0857265
0.0935847
0.102686
0.113111
0.124904
0.138068
0.152561
0.168287
0.121008
0.0677265
0.0592119
0.0565007
0.055475
0.0552242
0.0554923
0.0562156
0.0573998
0.0590819
0.0613163
0.0641712
0.0677268
0.0720743
0.0773146
0.083554
0.0909068
0.0994892
0.109399
0.120716
0.133487
0.147722
0.163379
0.124828
0.0698941
0.0610694
0.0581553
0.0569374
0.0564914
0.056558
0.0570701
0.0580283
0.0594626
0.0614198
0.0639602
0.0671562
0.0710925
0.0758648
0.0815782
0.0883537
0.0963097
0.105564
0.116226
0.128389
0.142118
0.157435
0.130241
0.0727645
0.0634618
0.0602654
0.0588074
0.0581386
0.0579915
0.0582911
0.0590284
0.0602227
0.0619097
0.0641383
0.0669703
0.0704806
0.0747567
0.0799008
0.0860247
0.0932499
0.101706
0.111526
0.122842
0.135776
0.150419
0.137932
0.0766566
0.0666033
0.0629787
0.0611894
0.0602452
0.059861
0.0599448
0.0604709
0.0614415
0.0628758
0.0648067
0.0672814
0.070362
0.0741255
0.0786614
0.0840723
0.090475
0.0980011
0.106797
0.117024
0.128849
0.142434
0.14892
0.0820485
0.0707767
0.0664596
0.0641788
0.0628725
0.0622153
0.0620821
0.0624173
0.0631971
0.0644168
0.0660864
0.0682313
0.0708957
0.0741414
0.0780454
0.082699
0.088208
0.094696
0.102309
0.11122
0.121627
0.133748
0.16462
0.0895853
0.0762843
0.0708263
0.0678042
0.0660124
0.0650396
0.0646976
0.0648833
0.0655353
0.0666168
0.0681052
0.0699895
0.0722794
0.0750205
0.0782853
0.0821556
0.0867229
0.0920947
0.0984031
0.105813
0.11453
0.1248
0.186716
0.0999494
0.0832986
0.0760308
0.071937
0.0695175
0.0681934
0.0676707
0.067778
0.0684089
0.0694918
0.0709644
0.0727507
0.074761
0.0770353
0.0796666
0.0827414
0.0863401
0.0905493
0.095476
0.10126
0.108085
0.11619
0.21638
0.113398
0.0915566
0.0816872
0.0761959
0.073038
0.0713552
0.0707021
0.0708263
0.0715831
0.072888
0.074664
0.0767405
0.0786712
0.0805382
0.0825421
0.0848113
0.0874255
0.0904508
0.0939629
0.0980632
0.102892
0.10864
0.251275
0.128492
0.0998843
0.0869028
0.079899
0.0760117
0.074015
0.0732909
0.0735134
0.0745295
0.0763136
0.0789234
0.0822274
0.0845068
0.086008
0.0873542
0.0887871
0.0903961
0.0922278
0.0943254
0.0967469
0.0995758
0.102931
0.282373
0.140589
0.105767
0.0902635
0.082151
0.0777681
0.075575
0.0748242
0.0751467
0.076415
0.0787496
0.0826714
0.0890506
0.0931289
0.0941102
0.0946555
0.095169
0.0957269
0.0963497
0.0970507
0.0978469
0.0987647
0.0998434
1.01681
0.682347
0.785904
1.13852
1.00603
1.11034
1.16548
1.19823
1.31293
1.58995
1.75553
1.77999
1.13297
1.33772
1.52285
1.62999
0.855959
1.27203
1.63309
1.67304
0.54435
0.805276
1.36752
1.65826
0.468739
0.517579
0.677091
0.851314
0.486292
0.50594
0.564898
0.748531
0.534304
0.550033
0.577657
0.646005
0.589749
0.607928
0.630516
0.65578
0.650773
0.658413
0.675233
0.695635
0.742661
0.719357
0.736869
0.738782
1.44826
1.22361
0.895738
0.776378
1.25974
1.39845
1.45783
1.37501
0.859841
0.964745
1.06983
1.16928
0.611648
0.670277
0.733407
0.800469
0.473004
0.506056
0.541947
0.580454
0.391156
0.412181
0.434722
0.458555
0.337568
0.352914
0.369061
0.385784
0.29927
0.311647
0.324456
0.337484
0.270449
0.281047
0.291893
0.302794
0.248307
0.25773
0.26731
0.276887
0.2313
0.239925
0.248668
0.2574
0.218409
0.226522
0.23474
0.242964
0.208845
0.216677
0.224619
0.232592
0.201903
0.209646
0.217509
0.225433
0.196919
0.204719
0.212655
0.220681
0.193249
0.201208
0.209325
0.217559
0.190289
0.19847
0.206834
0.215343
0.187518
0.19594
0.204571
0.213379
0.18445
0.193091
0.201975
0.211071
0.180679
0.189483
0.19857
0.207911
0.175891
0.184763
0.193963
0.203468
0.169865
0.178669
0.187853
0.197397
0.1625
0.171056
0.180044
0.189454
0.153839
0.161923
0.170485
0.179527
0.144103
0.151454
0.159313
0.167692
0.133716
0.140059
0.146903
0.154277
0.123319
0.128397
0.133924
0.139938
0.113737
0.117366
0.121341
0.125698
0.105912
0.108026
0.110348
0.112901
0.100798
0.101471
0.102208
0.103015
1.07632
1.01672
1.18025
1.32238
1.47419
1.65359
1.79858
1.77597
1.57137
1.27781
1.22735
1.24084
1.28978
1.01413
0.725508
0.862236
0.910449
0.434653
0.214943
1.1928
1.3176
1.31076
1.13177
1.01991
1.07389
1.24413
1.3931
1.47502
1.50083
1.39022
1.28873
1.31697
1.19483
1.28525
1.64576
1.45732
0.804491
0.407541
1.68391
1.58179
1.34361
1.12166
1.01147
1.11392
1.2053
1.28766
1.52269
1.81112
1.61213
1.43091
1.56128
1.61987
1.95881
2.23824
1.57612
0.925396
0.502689
1.64987
1.47928
1.30277
1.23981
1.17613
1.25839
1.30596
1.3868
1.75511
2.05857
1.71736
1.58487
2.00813
2.19654
2.3955
2.43346
1.45584
0.853065
0.36953
1.66857
1.53241
1.35852
1.65858
1.55985
1.48483
1.49452
1.63076
2.01429
2.14992
1.69082
1.67678
2.49914
2.7225
2.89136
2.96893
1.44539
0.795849
0.398926
1.6871
1.56699
1.61492
1.57881
1.53684
1.54189
1.58842
1.79628
2.10152
1.99179
1.48732
1.625
2.58284
2.94564
3.30442
4.31
1.52502
0.771886
0.467705
0.994029
1.19776
1.37396
1.5165
1.54566
1.55096
1.63536
1.84431
2.01853
1.55733
1.18896
1.47239
2.38504
2.91198
3.19983
5.11525
2.63216
0.879834
0.534757
0.933451
1.18044
1.37344
1.47781
1.47241
1.50951
1.64833
1.8515
1.52413
1.04123
0.950134
1.32293
2.22421
2.95092
3.03514
4.39675
4.1186
1.43081
0.594952
0.854747
1.19224
1.3532
1.37163
1.40257
1.49189
1.60505
1.40248
0.869878
0.77737
0.822045
1.17344
2.31624
2.9672
2.92596
3.70887
4.93002
3.62375
0.652988
0.706417
1.08041
1.35406
1.42212
1.51777
1.51264
1.29509
0.800004
0.71404
0.690367
0.748621
1.52575
2.40433
2.71593
2.82038
3.55546
6.03363
7.69703
1.35138
0.719011
0.779209
0.905698
1.12141
1.03893
0.927716
0.84135
0.760636
0.70519
0.69692
1.03339
2.00196
2.26595
2.55617
2.82965
3.90576
12.5163
9.30154
1.77757
0.753683
0.77216
0.811649
0.858093
0.848656
0.82205
0.800775
0.765609
0.72438
0.786201
2.02463
2.15254
2.34151
2.77448
3.45222
6.92792
12.0817
6.69719
1.46422
0.776325
0.760707
0.779466
0.783166
0.784127
0.78428
0.77726
0.761503
0.765917
1.66368
2.10898
2.29063
2.72684
3.75775
4.99971
7.39435
8.11977
4.04673
1.07641
0.957414
0.778511
0.787352
0.765619
0.767438
0.788665
0.787259
0.790167
1.35297
1.81231
2.07746
2.38183
3.00756
3.81748
4.76604
5.55863
5.25847
2.73098
0.993733
1.29468
1.22626
0.903008
0.782285
0.780071
0.836009
1.03534
1.25122
1.58391
1.83279
2.02784
2.32593
2.76513
3.27601
3.75108
4.01034
3.7163
2.08322
0.966737
0.918253
1.03895
1.02266
0.947741
0.95864
1.05297
1.2691
1.47705
1.69442
1.85526
1.95731
2.11495
2.3559
2.6249
2.85236
3.11736
2.92639
1.7572
0.965008
0.648837
0.730104
0.798772
0.865931
0.954564
1.05934
1.22437
1.43493
1.63623
1.76942
1.82177
1.87205
1.97346
2.12123
2.3179
2.65572
2.53233
1.60303
0.964729
0.499988
0.548342
0.605906
0.67999
0.779967
0.904347
1.0641
1.25453
1.44147
1.56752
1.61762
1.62834
1.6673
1.7828
2.0136
2.39963
2.39611
1.53969
0.942492
0.414164
0.446464
0.485893
0.542125
0.62357
0.732608
0.870061
1.02878
1.18635
1.30705
1.37293
1.39472
1.43399
1.55891
1.81786
2.22491
2.3903
1.56785
0.897748
0.359165
0.383025
0.410381
0.449533
0.507716
0.589316
0.694656
0.81765
0.94299
1.05507
1.13331
1.18112
1.2465
1.39425
1.67229
2.09017
2.3763
1.73569
0.864053
0.320735
0.34007
0.360632
0.38827
0.42865
0.486131
0.562072
0.65309
0.75224
0.850003
0.931984
1.001
1.09317
1.26218
1.55113
1.96722
2.32238
1.93747
0.855917
0.292597
0.309542
0.326652
0.347696
0.376928
0.417861
0.472416
0.540365
0.61868
0.700729
0.779788
0.860669
0.971207
1.15397
1.44535
1.84781
2.22812
2.12114
0.878522
0.271761
0.287535
0.30309
0.320941
0.344035
0.375217
0.416589
0.468851
0.530759
0.599335
0.672795
0.758104
0.87815
1.06675
1.35345
1.73626
2.11792
2.24312
0.995545
0.256565
0.271916
0.287002
0.303591
0.323752
0.349605
0.382937
0.424775
0.47512
0.533444
0.601134
0.686597
0.809649
0.998004
1.27568
1.63913
2.02072
2.30582
1.79148
0.245868
0.261293
0.276538
0.292883
0.311798
0.334825
0.363384
0.398569
0.441119
0.492055
0.554681
0.638151
0.760167
0.944261
1.2108
1.55794
1.9442
2.35341
2.99453
0.238712
0.25456
0.270342
0.286996
0.305572
0.327183
0.35294
0.383908
0.421249
0.466909
0.525265
0.605668
0.724139
0.90123
1.15508
1.48732
1.87798
2.37256
3.47774
0.234205
0.250725
0.267279
0.284549
0.303277
0.324264
0.348381
0.37664
0.410437
0.45223
0.506894
0.583557
0.696686
0.864402
1.10326
1.41834
1.80764
2.34743
3.30895
0.231497
0.248863
0.266338
0.284398
0.303552
0.324367
0.347535
0.374007
0.405292
0.444086
0.495361
0.56769
0.673913
0.829789
1.05024
1.34276
1.71927
2.24908
2.61972
0.229801
0.248126
0.266617
0.285577
0.305324
0.326241
0.348884
0.37414
0.403546
0.439839
0.487802
0.55519
0.653061
0.794656
0.992909
1.2563
1.60395
2.05772
1.55796
0.228394
0.24774
0.26732
0.287264
0.307725
0.328938
0.35134
0.375752
0.403671
0.437732
0.482329
0.544206
0.632524
0.757885
0.930913
1.16038
1.46718
1.84877
1.22437
0.22663
0.247023
0.267741
0.288752
0.310043
0.331715
0.354098
0.377934
0.40463
0.436612
0.477756
0.533696
0.611687
0.719749
0.865831
1.06032
1.32473
1.66962
1.08324
0.22395
0.245367
0.267255
0.289417
0.311661
0.333956
0.356524
0.380011
0.40569
0.435716
0.473376
0.523185
0.590628
0.681483
0.801707
0.961795
1.18606
1.50682
1.00038
0.219866
0.242228
0.265279
0.288663
0.312001
0.3351
0.358065
0.381425
0.406292
0.434512
0.468767
0.512524
0.569723
0.644296
0.740581
0.868245
1.05341
1.34456
0.954436
0.213962
0.237104
0.26125
0.285897
0.310476
0.33458
0.358178
0.381659
0.405948
0.432575
0.463645
0.501696
0.549386
0.609159
0.683891
0.781594
0.927418
1.17645
0.936824
0.205904
0.229535
0.254609
0.280496
0.306445
0.331777
0.356281
0.380177
0.404184
0.429517
0.457764
0.490693
0.529961
0.576847
0.632819
0.703529
0.810639
1.00659
0.95095
0.195474
0.219128
0.24479
0.271772
0.299157
0.325967
0.351712
0.376399
0.400512
0.424952
0.450893
0.479515
0.511746
0.548011
0.588543
0.636609
0.708916
0.854393
1.02047
0.182625
0.205594
0.231242
0.25894
0.287674
0.31624
0.343669
0.369683
0.394445
0.418509
0.442687
0.468033
0.494996
0.523242
0.551856
0.582252
0.628522
0.743809
1.25864
0.167569
0.188848
0.213485
0.241112
0.27083
0.301339
0.331083
0.35931
0.385498
0.409825
0.432999
0.456032
0.479388
0.502287
0.522751
0.54083
0.5733
0.690428
1.64724
0.1509
0.169192
0.191296
0.217357
0.246993
0.279223
0.312241
0.344475
0.373532
0.398953
0.42171
0.443116
0.46391
0.482907
0.497549
0.509485
0.5387
0.671131
1.76593
0.133713
0.147603
0.165157
0.187141
0.214153
0.246476
0.283813
0.324069
0.358967
0.386709
0.409343
0.429113
0.446895
0.460401
0.466443
0.47547
0.51783
0.702296
1.86309
0.117615
0.126004
0.137003
0.151605
0.171279
0.198591
0.238584
0.295353
0.342948
0.374877
0.39763
0.415049
0.427313
0.42765
0.405626
0.408343
0.472404
0.720532
2.16176
0.104497
0.107149
0.110665
0.115464
0.122413
0.134103
0.160885
0.239942
0.327556
0.366264
0.389658
0.404799
0.409378
0.383392
0.254156
0.240006
0.274699
0.388558
2.04785
)
;

boundaryField
{
    leftWall
    {
        lowReCorrection 0;
        blending        stepwise;
        n               2;
        type            epsilonWallFunction;
        value           nonuniform List<scalar> 
50
(
0.0147166
0.0197197
0.0263551
0.030671
0.0331367
0.0340296
0.0335924
0.0320388
0.027609
0.0267599
0.0279718
0.057955
0.0605857
0.0776274
0.098097
0.115595
0.128553
0.137838
0.144566
0.149341
0.152401
0.153852
0.153808
0.152442
0.14998
0.146674
0.142787
0.138576
0.134282
0.130121
0.126276
0.122889
0.12006
0.117851
0.11629
0.115384
0.115125
0.11551
0.116559
0.118342
0.121008
0.124828
0.130241
0.137932
0.14892
0.16462
0.186716
0.21638
0.251275
0.282373
)
;
    }
    rightWall
    {
        lowReCorrection 0;
        blending        stepwise;
        n               2;
        type            epsilonWallFunction;
        value           nonuniform List<scalar> 
50
(
0.162817
0.145978
0.186873
0.22703
0.235051
0.222376
0.210768
0.206883
0.214943
0.407541
0.502689
0.36953
0.398926
0.467705
0.534757
0.594952
0.652988
1.35138
1.77757
1.46422
1.07641
0.993733
0.966737
0.965008
0.964729
0.942492
0.897748
0.864053
0.855917
0.878522
0.995545
1.79148
2.99453
3.47774
3.30895
2.61972
1.55796
1.22437
1.08324
1.00038
0.954436
0.936824
0.95095
1.02047
1.25864
1.64724
1.76593
1.86309
2.16176
2.04785
)
;
    }
    lowerWall
    {
        lowReCorrection 0;
        blending        stepwise;
        n               2;
        type            epsilonWallFunction;
        value           nonuniform List<scalar> 
62
(
0.0147166
0.0358706
0.0543007
0.0707603
0.0856138
0.099655
0.113498
0.127245
0.140659
0.153316
0.164732
0.174494
0.18239
0.18858
0.192107
0.193353
0.19342
0.193747
0.191682
0.184407
0.162517
0.11259
0.0382927
0.0382927
0.050607
0.0750414
0.101187
0.137878
0.210969
0.377299
0.741632
1.01681
0.682347
0.785904
1.13852
0.675138
0.854223
1.11665
1.29448
1.40505
1.44677
1.42852
1.37805
0.675138
0.888744
1.25931
1.54652
1.73805
1.85296
1.96367
2.09495
2.24207
2.3505
2.3527
2.17402
1.82014
1.48608
1.31312
1.20378
1.01113
0.597132
0.162817
)
;
    }
    atmosphere
    {
        type            inletOutlet;
        inletValue      uniform 0.1;
        value           nonuniform List<scalar> 
46
(
0.282373
0.140589
0.105767
0.0902635
0.082151
0.0777681
0.075575
0.0748242
0.0751467
0.076415
0.0787496
0.0826714
0.0890506
0.1
0.1
0.1
0.1
0.1
0.1
0.1
0.1
0.1
0.1
0.1
0.1
0.1
0.1
0.1
0.1
0.1
0.1
0.1
0.1
0.1
0.1
0.327556
0.366264
0.389658
0.404799
0.409378
0.383392
0.1
0.1
0.1
0.1
2.04785
)
;
    }
    defaultFaces
    {
        type            empty;
    }
}


// ************************************************************************* //
