/*--------------------------------*- C++ -*----------------------------------*\
| =========                 |                                                 |
| \\      /  F ield         | OpenFOAM: The Open Source CFD Toolbox           |
|  \\    /   O peration     | Version:  v2012                                 |
|   \\  /    A nd           | Website:  www.openfoam.com                      |
|    \\/     M anipulation  |                                                 |
\*---------------------------------------------------------------------------*/
FoamFile
{
    version     2.0;
    format      ascii;
    class       volScalarField;
    location    "0.85";
    object      k;
}
// * * * * * * * * * * * * * * * * * * * * * * * * * * * * * * * * * * * * * //

dimensions      [0 2 -2 0 0 0 0];


internalField   nonuniform List<scalar> 
2268
(
0.00279864
0.00413391
0.0054527
0.00651026
0.00739806
0.00819189
0.00893821
0.0096485
0.0103156
0.0109242
0.0114577
0.0119035
0.0122581
0.0125367
0.012704
0.0127809
0.012819
0.0128731
0.0128122
0.0125021
0.01147
0.00892151
0.0042579
0.00458538
0.00815025
0.0108846
0.0131485
0.0150161
0.0166337
0.0181146
0.0195039
0.0208044
0.0219978
0.023059
0.0239653
0.0247019
0.025261
0.0256522
0.0259223
0.0261524
0.0264173
0.0266489
0.0263842
0.0245427
0.0193712
0.008515
0.005576
0.0104856
0.0139994
0.0169034
0.019307
0.021369
0.0232222
0.0249305
0.0265093
0.0279477
0.0292243
0.0303194
0.0312222
0.0319361
0.0324816
0.0329185
0.0333423
0.0338261
0.0342579
0.0340439
0.031856
0.0255327
0.0110828
0.00618431
0.0120104
0.0161338
0.0195535
0.022373
0.0247571
0.0268635
0.0287783
0.0305326
0.0321258
0.0335438
0.0347716
0.035804
0.0366522
0.0373478
0.0379639
0.0386088
0.0393526
0.0400383
0.0399707
0.0376163
0.0305224
0.0135281
0.00653056
0.0130424
0.0177323
0.0216284
0.0248036
0.0274423
0.0297383
0.0318042
0.0336873
0.035398
0.0369286
0.0382686
0.0394174
0.0403919
0.0412358
0.0420373
0.0429226
0.0439683
0.0449864
0.0451885
0.0428605
0.0352985
0.0166577
0.00667107
0.0137287
0.018994
0.023345
0.0268256
0.0296649
0.0321039
0.0342831
0.0362659
0.0380716
0.0396977
0.0411368
0.0423914
0.043484
0.0444711
0.0454618
0.0466133
0.0480314
0.0495357
0.0503078
0.0485587
0.041404
0.0222568
0.00664161
0.0141501
0.020028
0.024808
0.0285412
0.0315313
0.0340743
0.0363386
0.0384003
0.0402857
0.0419948
0.0435213
0.0448704
0.0460714
0.0471963
0.0483854
0.0498492
0.0517644
0.054036
0.0559548
0.0558797
0.0509518
0.0331153
0.0064652
0.0143534
0.0208886
0.0260549
0.0299836
0.0330806
0.0356981
0.0380283
0.0401563
0.0421112
0.0438934
0.0454965
0.0469274
0.0482266
0.0494862
0.0508915
0.0527369
0.0553259
0.0587538
0.062593
0.065541
0.0650187
0.0525939
0.0288567
0.0346604
0.0437139
0.0502068
0.0543956
0.0568762
0.0591455
0.0616825
0.0643708
0.0661941
0.06591
0.0620893
0.0548499
0.0480632
0.0445329
0.0421294
0.0375289
0.0265156
0.0140344
0.0598028
0.0803892
0.0830876
0.0900008
0.0987316
0.103194
0.104938
0.108026
0.112727
0.116938
0.117578
0.111524
0.0988954
0.0870623
0.0811982
0.0773374
0.069318
0.0524522
0.0183926
0.071624
0.0998789
0.106432
0.120606
0.130902
0.132814
0.130589
0.131072
0.135176
0.140116
0.141586
0.13488
0.118221
0.101046
0.0915093
0.0851789
0.075366
0.057155
0.0216349
0.0791671
0.113472
0.126152
0.146284
0.158806
0.158355
0.149627
0.145578
0.148052
0.153472
0.156715
0.151567
0.13174
0.108104
0.0938651
0.0845764
0.0735618
0.0564592
0.0245533
0.0838393
0.122488
0.141597
0.168316
0.186969
0.188659
0.171835
0.160628
0.159451
0.163985
0.168633
0.166841
0.145007
0.113681
0.0938629
0.0815255
0.0691132
0.0533269
0.0250377
0.0858305
0.126148
0.150781
0.18586
0.215828
0.230173
0.210204
0.191686
0.181809
0.180026
0.185281
0.185016
0.160551
0.120436
0.0946001
0.0795801
0.0655114
0.0494053
0.0241462
0.0854636
0.124097
0.153191
0.198902
0.237873
0.262532
0.257373
0.232498
0.208219
0.204162
0.217833
0.214054
0.183068
0.130602
0.0979749
0.0811457
0.0649521
0.0468173
0.0234008
0.0836842
0.118867
0.153028
0.200534
0.2384
0.25773
0.257084
0.240449
0.220369
0.215273
0.230045
0.237224
0.216187
0.147466
0.105866
0.0905589
0.074973
0.0470893
0.0232835
0.00589532
0.0144098
0.021988
0.0276453
0.0317911
0.0350059
0.037716
0.0401386
0.0423641
0.0444201
0.046305
0.0480113
0.0495475
0.050963
0.052398
0.0541302
0.0566079
0.0603455
0.0657445
0.0727309
0.080167
0.0859058
0.0868925
0.00576355
0.0147839
0.0228839
0.0287355
0.0329584
0.0362436
0.0390523
0.041596
0.0439471
0.0461195
0.048116
0.0499378
0.051604
0.0531901
0.0549331
0.0573301
0.0611966
0.0675009
0.0773231
0.0908139
0.105503
0.117745
0.125961
0.00592021
0.015146
0.0233338
0.0291648
0.0333688
0.0366526
0.0394913
0.0420856
0.0445011
0.0467601
0.0488622
0.0508127
0.0526127
0.0543878
0.0565352
0.0599014
0.0659007
0.0757799
0.0914024
0.112161
0.1335
0.151566
0.168143
0.00922359
0.0161789
0.0241034
0.0297364
0.033805
0.0369958
0.0397705
0.0423228
0.0447145
0.0469597
0.0490478
0.0509842
0.0527783
0.0545673
0.0567491
0.0611557
0.0723608
0.0881783
0.113482
0.142403
0.16674
0.178298
0.186541
0.00965698
0.0183675
0.0269496
0.033158
0.0385842
0.0435551
0.0484209
0.0533101
0.0581992
0.0631301
0.0684748
0.0747644
0.082032
0.0894802
0.0957245
0.096922
0.0898215
0.102849
0.133408
0.16783
0.186881
0.181457
0.180701
0.0112332
0.021512
0.0299449
0.0363692
0.0421315
0.0479379
0.0540893
0.0605996
0.0674133
0.0747448
0.0832823
0.0938456
0.106718
0.12143
0.137347
0.155159
0.177576
0.192899
0.191798
0.192313
0.179412
0.168454
0.165234
0.0131247
0.0253666
0.0337547
0.0401878
0.0459206
0.0517552
0.0581252
0.0652481
0.0731686
0.0822234
0.0932207
0.107155
0.124708
0.145874
0.169547
0.192584
0.208426
0.20694
0.193686
0.190291
0.169977
0.160992
0.159271
0.0147112
0.0288697
0.0376172
0.0441762
0.049849
0.0554252
0.061438
0.0682664
0.0763048
0.0860497
0.0982652
0.113971
0.133977
0.158323
0.185252
0.209466
0.221587
0.215166
0.203309
0.202605
0.178621
0.165945
0.165261
0.0158613
0.0316689
0.0409478
0.0477481
0.0534398
0.0587826
0.0643453
0.0706182
0.0781207
0.0875722
0.0997718
0.11563
0.13592
0.160617
0.187814
0.212169
0.224908
0.221536
0.218528
0.233558
0.20618
0.179398
0.177164
0.0166681
0.0337565
0.0435316
0.0506127
0.0564196
0.0616697
0.0669082
0.0726491
0.0794583
0.0880492
0.099347
0.114193
0.13326
0.156521
0.1823
0.206119
0.220898
0.222862
0.225566
0.253503
0.265869
0.202148
0.191654
0.0172432
0.0352803
0.0454383
0.052774
0.0587408
0.0640128
0.069086
0.074441
0.0806224
0.0883003
0.0982953
0.111486
0.128558
0.149455
0.17294
0.195615
0.212087
0.218843
0.224036
0.250576
0.297328
0.278519
0.208521
0.017649
0.0363663
0.0467885
0.0543252
0.0604539
0.0658139
0.0708488
0.0759832
0.0817025
0.0886017
0.0973984
0.108865
0.123638
0.141851
0.162675
0.183696
0.200946
0.211305
0.21861
0.237914
0.283118
0.33299
0.307866
0.0179122
0.037085
0.0476716
0.055354
0.061628
0.0671062
0.0721873
0.0772381
0.082673
0.0889976
0.0968203
0.106802
0.119512
0.135172
0.153291
0.172259
0.189326
0.201951
0.211267
0.225338
0.255685
0.304457
0.353082
0.0180452
0.0374827
0.0481558
0.0559355
0.0623296
0.0679316
0.0731048
0.0781659
0.0834616
0.08941
0.096512
0.105317
0.11632
0.129776
0.145439
0.162294
0.178514
0.192161
0.203013
0.214572
0.233439
0.26457
0.305948
0.0180585
0.0376008
0.0483003
0.0561358
0.0626211
0.0683354
0.0736157
0.0787385
0.0839933
0.089721
0.0963262
0.104256
0.113926
0.125593
0.139171
0.154054
0.169065
0.182797
0.19453
0.205337
0.218193
0.236303
0.26076
0.0179654
0.0374821
0.0481607
0.0560164
0.0625621
0.0683661
0.0737457
0.0789469
0.0842138
0.0898238
0.0961006
0.103402
0.112069
0.12234
0.134224
0.147377
0.161057
0.174278
0.186254
0.19698
0.207444
0.219102
0.23294
0.0177826
0.0371709
0.0477909
0.0556361
0.0622114
0.0680757
0.0735318
0.078803
0.0840985
0.089646
0.0957044
0.102557
0.110482
0.119685
0.130223
0.141916
0.154302
0.166702
0.178432
0.189102
0.198794
0.207945
0.217024
0.0175289
0.0367114
0.0472437
0.0550521
0.0616276
0.06752
0.0730214
0.0783381
0.0836533
0.0891568
0.0950573
0.10158
0.108946
0.117331
0.12681
0.137296
0.148504
0.15997
0.171149
0.181572
0.190974
0.199314
0.206713
0.0172237
0.036147
0.0465703
0.0543204
0.060869
0.0667576
0.0722696
0.0775989
0.0829096
0.088363
0.0941299
0.10039
0.107321
0.115066
0.123704
0.133198
0.143372
0.153907
0.164386
0.174377
0.183519
0.191587
0.198528
0.0168866
0.0355194
0.0458195
0.0534942
0.0599927
0.0658479
0.0713364
0.076643
0.0819176
0.0873009
0.0929353
0.0989669
0.105537
0.112765
0.12072
0.129395
0.138677
0.148345
0.158082
0.167528
0.176329
0.184213
0.191053
0.0165368
0.0348682
0.0450372
0.052624
0.0590531
0.064849
0.070283
0.075533
0.0807388
0.0860259
0.0915163
0.0973309
0.103585
0.110375
0.117763
0.125752
0.13427
0.143159
0.15218
0.16104
0.169431
0.177091
0.183867
0.016192
0.0342295
0.0442653
0.0517558
0.0581005
0.063816
0.069169
0.0743326
0.0794392
0.0846038
0.0899336
0.0955314
0.101493
0.107898
0.1148
0.122208
0.130073
0.138278
0.146643
0.154931
0.162887
0.170278
0.176948
0.0158681
0.0336348
0.0435402
0.05093
0.0571796
0.0627982
0.0680492
0.0731018
0.0780836
0.0831022
0.0882545
0.0936307
0.0993128
0.105369
0.111845
0.118752
0.126056
0.133671
0.141456
0.149223
0.15676
0.163869
0.170402
0.0155782
0.0331095
0.0428921
0.0501805
0.0563281
0.0618382
0.0669712
0.0718939
0.0767308
0.0815845
0.086545
0.091694
0.0971044
0.102836
0.10893
0.1154
0.122222
0.129332
0.136618
0.143931
0.151097
0.157946
0.164346
0.0153322
0.0326731
0.0423442
0.0495337
0.0555763
0.0609704
0.0659744
0.0707539
0.0754312
0.0801059
0.0848638
0.0897812
0.0949252
0.100351
0.106097
0.11218
0.118585
0.125263
0.132128
0.139059
0.145915
0.152552
0.158853
0.0151367
0.0323383
0.0419129
0.0490091
0.054947
0.0602214
0.0650899
0.0697175
0.0742255
0.0787118
0.0832599
0.0879429
0.0928248
0.0979586
0.103383
0.109117
0.115155
0.121463
0.127974
0.134592
0.141202
0.147684
0.153935
0.0149956
0.0321131
0.041609
0.0486202
0.0544565
0.059611
0.0643411
0.0688122
0.0731454
0.0774377
0.0817716
0.0862188
0.0908421
0.095694
0.100815
0.106228
0.111937
0.11792
0.124129
0.130489
0.136908
0.143289
0.149541
0.0149104
0.032001
0.0414392
0.0483763
0.0541171
0.0591541
0.0637461
0.0680592
0.072215
0.0763107
0.0804283
0.0846393
0.0890063
0.0935829
0.0984117
0.103522
0.108925
0.114613
0.120554
0.126693
0.132959
0.139275
0.145563
0.0148812
0.0320039
0.0414083
0.0482851
0.0539387
0.0588634
0.0633197
0.0674756
0.0714537
0.0753518
0.0792525
0.0832272
0.0873392
0.0916435
0.096186
0.101001
0.10611
0.111515
0.117201
0.123133
0.129259
0.135522
0.141864
0.0149079
0.0321244
0.0415224
0.0483556
0.0539331
0.0587523
0.0630772
0.0670779
0.0708792
0.0745798
0.0782631
0.0820011
0.0858578
0.0898898
0.094146
0.0986663
0.103479
0.108599
0.114026
0.119743
0.12573
0.131947
0.138341
0.0149922
0.0323689
0.0417927
0.0486022
0.0541166
0.0588388
0.0630372
0.0668854
0.0705107
0.0740138
0.077479
0.080979
0.0845786
0.0883356
0.0923013
0.0965199
0.101027
0.105847
0.110999
0.116493
0.122318
0.128452
0.134859
0.0151395
0.0327524
0.0422396
0.0490487
0.0545147
0.0591486
0.063225
0.0669224
0.0703718
0.0736765
0.076922
0.0801818
0.0835211
0.0869983
0.0906663
0.0945725
0.0987576
0.103262
0.108119
0.113349
0.11896
0.124951
0.131306
0.0153617
0.0333028
0.0428984
0.0497331
0.0551653
0.059718
0.0636746
0.0672208
0.0704925
0.0735962
0.0766192
0.0796356
0.0827104
0.0859022
0.0892643
0.0928456
0.0966947
0.10086
0.10538
0.110292
0.115622
0.121392
0.127607
0.0156794
0.0340668
0.0438234
0.0507104
0.0561203
0.0605942
0.0644287
0.0678192
0.0709084
0.0738069
0.0766036
0.079373
0.0821795
0.0850806
0.0881291
0.0913748
0.0948704
0.098664
0.102804
0.107337
0.11231
0.117766
0.123733
0.0161261
0.0351146
0.0450913
0.0520522
0.0574424
0.0618308
0.0655333
0.0687587
0.071658
0.074346
0.0769132
0.0794335
0.0819694
0.0845764
0.0873055
0.090207
0.0933296
0.0967227
0.100439
0.104535
0.109071
0.114109
0.119704
0.0167511
0.0365424
0.0467957
0.0538364
0.0591917
0.0634737
0.0670251
0.0700713
0.0727725
0.0752473
0.0775861
0.0798603
0.0821287
0.0844429
0.0868515
0.0894006
0.092136
0.0951059
0.0983634
0.101969
0.105992
0.110509
0.115599
0.0176233
0.0384621
0.0490241
0.0561176
0.0613965
0.0655342
0.0689075
0.0717598
0.0742595
0.0765272
0.0786508
0.0806953
0.0827113
0.0847431
0.0868347
0.0890291
0.09137
0.0939022
0.0966758
0.09975
0.103196
0.107099
0.111553
0.0188274
0.0409604
0.0518046
0.0588757
0.0640077
0.0679508
0.0711181
0.073769
0.0760774
0.0781635
0.0801092
0.0819683
0.0837735
0.0855505
0.0873378
0.0891816
0.0911265
0.0932147
0.095491
0.0980083
0.100833
0.104049
0.107755
0.0204441
0.0440129
0.0550277
0.0619551
0.0668533
0.0705533
0.0734981
0.0759572
0.0781068
0.0800656
0.0819106
0.0836807
0.0853735
0.086955
0.088463
0.0899641
0.0915144
0.0931574
0.0949324
0.0968831
0.0990647
0.10155
0.10443
0.022493
0.047371
0.0583765
0.0650265
0.0696189
0.073051
0.075781
0.0780803
0.0801256
0.0820403
0.0839102
0.0857754
0.0875792
0.0890828
0.0903444
0.0915051
0.0926574
0.0938535
0.0951281
0.0965139
0.0980513
0.0997946
0.101816
0.0247617
0.0505262
0.0613119
0.0676045
0.0718791
0.0750658
0.0776202
0.0798082
0.0818099
0.083767
0.0858122
0.0880666
0.0904816
0.0921446
0.0931694
0.0939632
0.0946971
0.0954361
0.0962093
0.0970374
0.0979442
0.0989623
0.100136
0.0266749
0.0526516
0.0631347
0.0691322
0.0731829
0.0762123
0.0786629
0.0807941
0.0827904
0.0848209
0.0871044
0.0900035
0.0939282
0.0965375
0.0971979
0.0975259
0.0977908
0.0980475
0.0983108
0.0985876
0.0988856
0.0992152
0.0995915
0.0645431
0.0489862
0.0527234
0.0683733
0.125442
0.117945
0.10764
0.101677
0.189254
0.198976
0.195266
0.185466
0.205535
0.217125
0.223408
0.222116
0.192792
0.215852
0.236546
0.235429
0.16795
0.192604
0.228022
0.239322
0.162231
0.170075
0.183557
0.192063
0.16818
0.172173
0.181938
0.198064
0.180273
0.18352
0.188989
0.201218
0.193877
0.197809
0.202582
0.207695
0.208211
0.210319
0.214126
0.218732
0.224651
0.22246
0.228034
0.229414
0.346799
0.311332
0.257531
0.237254
0.33613
0.352149
0.354609
0.337494
0.281729
0.297146
0.311889
0.324829
0.24474
0.254125
0.264182
0.274795
0.224055
0.229644
0.235737
0.242334
0.211868
0.215806
0.219984
0.224385
0.203114
0.206475
0.209904
0.213355
0.195526
0.198712
0.201868
0.204932
0.188329
0.191454
0.194499
0.197399
0.181393
0.184477
0.187461
0.190284
0.174814
0.177859
0.180804
0.183593
0.168728
0.171746
0.174673
0.177463
0.16323
0.166243
0.169182
0.172007
0.158345
0.161383
0.164365
0.167259
0.154021
0.157112
0.160167
0.16316
0.150142
0.153306
0.156456
0.159568
0.146559
0.149809
0.153066
0.15631
0.143147
0.146478
0.149836
0.153207
0.139749
0.143141
0.146583
0.150061
0.136234
0.139655
0.143149
0.146703
0.132506
0.13591
0.139412
0.142999
0.128516
0.131845
0.135295
0.138856
0.124267
0.12745
0.130775
0.134237
0.119822
0.122777
0.125891
0.129164
0.115312
0.11795
0.120756
0.123735
0.11093
0.113164
0.115563
0.118135
0.106925
0.108684
0.110587
0.112646
0.103576
0.104817
0.106167
0.107636
0.101159
0.101877
0.10266
0.103512
0.0999182
0.100147
0.100395
0.100663
0.0806347
0.118287
0.149903
0.177221
0.199688
0.216911
0.22457
0.221569
0.218498
0.221842
0.233503
0.240921
0.24431
0.199844
0.137383
0.126925
0.116126
0.0583279
0.0240971
0.104664
0.151755
0.172983
0.171029
0.167585
0.17523
0.186306
0.193057
0.203196
0.236355
0.250191
0.247816
0.250319
0.225867
0.198124
0.197724
0.164381
0.0963621
0.0402949
0.174219
0.196177
0.192447
0.180873
0.174265
0.184554
0.185531
0.185962
0.210343
0.266389
0.274858
0.266087
0.275651
0.257303
0.24492
0.237522
0.168494
0.100112
0.0428816
0.215063
0.215211
0.204287
0.197329
0.190283
0.196778
0.195401
0.200434
0.241242
0.298704
0.29053
0.288179
0.321982
0.301172
0.269764
0.243825
0.148645
0.085553
0.034412
0.229013
0.223191
0.209059
0.23332
0.228863
0.221681
0.220781
0.23399
0.279274
0.314639
0.295678
0.306063
0.377256
0.355702
0.305872
0.274254
0.138852
0.0726525
0.0365387
0.233547
0.230816
0.240273
0.234882
0.232839
0.235377
0.239065
0.261235
0.300172
0.311187
0.284173
0.30894
0.395592
0.400307
0.342882
0.360321
0.136818
0.0655311
0.0409837
0.196406
0.206
0.219092
0.232957
0.239216
0.242877
0.251254
0.274644
0.302329
0.282806
0.259948
0.297805
0.383951
0.409574
0.353523
0.418655
0.222933
0.0686879
0.0451246
0.204449
0.209739
0.22337
0.234777
0.237554
0.241687
0.25556
0.279314
0.27399
0.241226
0.236943
0.282527
0.370213
0.41244
0.356755
0.401912
0.344435
0.104896
0.0487638
0.219068
0.223909
0.229015
0.229884
0.232313
0.241867
0.256968
0.260365
0.227073
0.216509
0.222967
0.262968
0.373516
0.410759
0.362154
0.381136
0.425456
0.247563
0.057158
0.217843
0.242658
0.2474
0.244807
0.252555
0.259879
0.259744
0.225328
0.214401
0.208663
0.215158
0.29313
0.367153
0.385095
0.362688
0.38252
0.481417
0.513279
0.0945987
0.224135
0.236012
0.251195
0.260372
0.256584
0.251041
0.24226
0.230043
0.217501
0.212091
0.245634
0.326448
0.346666
0.365027
0.365042
0.40802
0.772279
0.631527
0.094433
0.233241
0.237589
0.244163
0.25044
0.248087
0.244505
0.240718
0.233376
0.22299
0.227731
0.330487
0.332967
0.343949
0.368618
0.396131
0.575043
0.811727
0.528009
0.0770515
0.23914
0.237103
0.240773
0.241343
0.240984
0.240449
0.238148
0.233703
0.230574
0.313437
0.333781
0.339054
0.363209
0.420795
0.493802
0.62751
0.663235
0.384716
0.0696879
0.268956
0.240248
0.242884
0.239266
0.239196
0.242011
0.240057
0.237501
0.299738
0.325664
0.333139
0.347042
0.384535
0.437246
0.501879
0.558025
0.525143
0.305154
0.0676825
0.337999
0.322566
0.265457
0.243243
0.242685
0.254339
0.291791
0.312616
0.336215
0.33956
0.338624
0.350845
0.379098
0.417988
0.458653
0.480857
0.431568
0.260778
0.0671166
0.293113
0.311145
0.306845
0.296543
0.301355
0.317411
0.347332
0.362026
0.367687
0.360636
0.348297
0.347166
0.361343
0.385885
0.411199
0.429019
0.372584
0.23484
0.0672003
0.254126
0.269024
0.282446
0.297611
0.316254
0.334236
0.355771
0.372832
0.378554
0.369958
0.352045
0.339831
0.341975
0.357498
0.379746
0.400984
0.342133
0.221592
0.0667541
0.231999
0.241828
0.254432
0.271539
0.293226
0.316307
0.339666
0.358733
0.36727
0.361439
0.344925
0.328867
0.324865
0.337197
0.36134
0.386627
0.341181
0.216132
0.0651294
0.21903
0.225907
0.235078
0.248642
0.267227
0.288974
0.311249
0.329959
0.340266
0.338847
0.327696
0.314521
0.310844
0.323334
0.349543
0.378825
0.35774
0.220052
0.0631967
0.209763
0.215041
0.221489
0.231082
0.244809
0.261993
0.28048
0.296886
0.307372
0.309947
0.304871
0.297593
0.297833
0.312602
0.34111
0.374238
0.371821
0.242049
0.0623527
0.201872
0.206379
0.211183
0.217857
0.227418
0.239846
0.253855
0.267051
0.276924
0.281852
0.281651
0.28029
0.285438
0.303337
0.33409
0.369786
0.379145
0.273415
0.0626615
0.194618
0.198856
0.202881
0.207828
0.214599
0.223416
0.233651
0.243974
0.252749
0.258604
0.261639
0.264947
0.274462
0.295303
0.327769
0.36449
0.380352
0.309127
0.0654705
0.187904
0.192171
0.195986
0.200161
0.205381
0.211968
0.2197
0.227828
0.235308
0.24135
0.246344
0.252911
0.265711
0.288787
0.322228
0.358923
0.378085
0.336322
0.0819477
0.181826
0.186305
0.190262
0.19428
0.198861
0.204288
0.210508
0.217131
0.22359
0.229577
0.235753
0.244459
0.259469
0.28397
0.317729
0.35394
0.375074
0.350358
0.130065
0.176487
0.181295
0.1856
0.189818
0.194299
0.199253
0.204692
0.210434
0.216246
0.222176
0.229092
0.239146
0.255494
0.28068
0.314216
0.349713
0.371918
0.354955
0.154767
0.171912
0.177129
0.181902
0.186517
0.191206
0.196107
0.201246
0.206564
0.212046
0.217985
0.225378
0.236221
0.253211
0.278411
0.311152
0.345505
0.367794
0.354265
0.158107
0.168032
0.173712
0.179019
0.184137
0.189203
0.194294
0.199429
0.204624
0.209998
0.215998
0.223679
0.23488
0.251915
0.276453
0.307685
0.34011
0.361538
0.34961
0.144372
0.164691
0.17087
0.176746
0.18242
0.187952
0.193368
0.198675
0.203929
0.209332
0.21541
0.223213
0.2344
0.25093
0.274099
0.302971
0.332446
0.351947
0.338872
0.113177
0.1617
0.168388
0.174843
0.181093
0.187136
0.19295
0.198531
0.203952
0.209456
0.215595
0.223359
0.234202
0.249722
0.270845
0.296517
0.322047
0.338284
0.319408
0.0844197
0.15885
0.166034
0.173056
0.179886
0.186458
0.192714
0.198629
0.204279
0.209918
0.21608
0.223658
0.233872
0.247965
0.2665
0.288338
0.309307
0.32147
0.298419
0.0755985
0.155927
0.163574
0.171141
0.178543
0.185654
0.192376
0.198664
0.204582
0.210371
0.216516
0.223785
0.233156
0.245533
0.261153
0.278805
0.295148
0.303514
0.281017
0.0706291
0.152741
0.160798
0.168875
0.17683
0.184484
0.191692
0.198383
0.204598
0.210546
0.216645
0.223523
0.231923
0.242442
0.255068
0.268626
0.280481
0.28552
0.265153
0.0676297
0.149136
0.157527
0.166057
0.174537
0.182734
0.190447
0.197569
0.204109
0.210232
0.216278
0.222731
0.230118
0.238781
0.24852
0.258241
0.265869
0.267685
0.24875
0.0660058
0.144997
0.153613
0.162517
0.171476
0.180208
0.188442
0.196027
0.202928
0.209257
0.215268
0.221312
0.227727
0.234649
0.241745
0.247982
0.251664
0.250047
0.230843
0.065592
0.140258
0.148949
0.158107
0.167473
0.176718
0.18549
0.193577
0.20089
0.207476
0.213503
0.219199
0.224751
0.230143
0.234942
0.238135
0.238192
0.233
0.212017
0.0668264
0.134911
0.14347
0.152707
0.16236
0.172065
0.181393
0.19004
0.197845
0.204774
0.210899
0.216354
0.221216
0.225362
0.228294
0.228986
0.225971
0.217578
0.195605
0.0711942
0.129021
0.137171
0.14623
0.155971
0.166022
0.175921
0.185217
0.19365
0.201067
0.207423
0.212761
0.217148
0.220402
0.221953
0.220714
0.215364
0.204828
0.182921
0.0848896
0.12275
0.130136
0.138642
0.148143
0.158334
0.168766
0.178847
0.188164
0.196306
0.203078
0.208475
0.212578
0.215254
0.215878
0.213328
0.206495
0.194756
0.172561
0.0966618
0.11638
0.122583
0.130025
0.138752
0.148649
0.159422
0.170501
0.181239
0.19057
0.198012
0.203611
0.207542
0.209772
0.209661
0.206118
0.198593
0.186908
0.16617
0.0993842
0.110319
0.114928
0.120692
0.127848
0.136595
0.147083
0.159336
0.172671
0.18415
0.192654
0.198518
0.202195
0.203709
0.202228
0.196802
0.189353
0.180659
0.16726
0.10243
0.105073
0.107811
0.111349
0.115986
0.122177
0.130771
0.143482
0.161707
0.177594
0.187761
0.193931
0.197095
0.197126
0.192137
0.179853
0.172774
0.171262
0.168949
0.112451
0.101151
0.102008
0.103126
0.104629
0.106783
0.110393
0.118622
0.142352
0.171761
0.18441
0.190967
0.193584
0.191556
0.179733
0.140862
0.134922
0.137001
0.132628
0.108107
)
;

boundaryField
{
    leftWall
    {
        type            kqRWallFunction;
        value           nonuniform List<scalar> 
50
(
0.00279864
0.00458538
0.005576
0.00618431
0.00653056
0.00667107
0.00664161
0.0064652
0.00589532
0.00576355
0.00592021
0.00922359
0.00965698
0.0112332
0.0131247
0.0147112
0.0158613
0.0166681
0.0172432
0.017649
0.0179122
0.0180452
0.0180585
0.0179654
0.0177826
0.0175289
0.0172237
0.0168866
0.0165368
0.016192
0.0158681
0.0155782
0.0153322
0.0151367
0.0149956
0.0149104
0.0148812
0.0149079
0.0149922
0.0151395
0.0153617
0.0156794
0.0161261
0.0167511
0.0176233
0.0188274
0.0204441
0.022493
0.0247617
0.0266749
)
;
    }
    rightWall
    {
        type            kqRWallFunction;
        value           nonuniform List<scalar> 
50
(
0.0140344
0.0183926
0.0216349
0.0245533
0.0250377
0.0241462
0.0234008
0.0232835
0.0240971
0.0402949
0.0428816
0.034412
0.0365387
0.0409837
0.0451246
0.0487638
0.057158
0.0945987
0.094433
0.0770515
0.0696879
0.0676825
0.0671166
0.0672003
0.0667541
0.0651294
0.0631967
0.0623527
0.0626615
0.0654705
0.0819477
0.130065
0.154767
0.158107
0.144372
0.113177
0.0844197
0.0755985
0.0706291
0.0676297
0.0660058
0.065592
0.0668264
0.0711942
0.0848896
0.0966618
0.0993842
0.10243
0.112451
0.108107
)
;
    }
    lowerWall
    {
        type            kqRWallFunction;
        value           nonuniform List<scalar> 
62
(
0.00279864
0.00413391
0.0054527
0.00651026
0.00739806
0.00819189
0.00893821
0.0096485
0.0103156
0.0109242
0.0114577
0.0119035
0.0122581
0.0125367
0.012704
0.0127809
0.012819
0.0128731
0.0128122
0.0125021
0.01147
0.00892151
0.0042579
0.0042579
0.008515
0.0110828
0.0135281
0.0166577
0.0222568
0.0331153
0.0525939
0.0645431
0.0489862
0.0527234
0.0683733
0.0288567
0.0598028
0.071624
0.0791671
0.0838393
0.0858305
0.0854636
0.0836842
0.0288567
0.0346604
0.0437139
0.0502068
0.0543956
0.0568762
0.0591455
0.0616825
0.0643708
0.0661941
0.06591
0.0620893
0.0548499
0.0480632
0.0445329
0.0421294
0.0375289
0.0265156
0.0140344
)
;
    }
    atmosphere
    {
        type            inletOutlet;
        inletValue      uniform 0.1;
        value           nonuniform List<scalar> 
46
(
0.0266749
0.0526516
0.0631347
0.0691322
0.0731829
0.0762123
0.0786629
0.0807941
0.0827904
0.0848209
0.0871044
0.0900035
0.0939282
0.1
0.1
0.1
0.1
0.1
0.1
0.1
0.1
0.1
0.1
0.1
0.1
0.1
0.1
0.1
0.1
0.1
0.1
0.1
0.1
0.1
0.1
0.171761
0.18441
0.190967
0.193584
0.191556
0.179733
0.1
0.1
0.1
0.1
0.108107
)
;
    }
    defaultFaces
    {
        type            empty;
    }
}


// ************************************************************************* //
