/*--------------------------------*- C++ -*----------------------------------*\
| =========                 |                                                 |
| \\      /  F ield         | OpenFOAM: The Open Source CFD Toolbox           |
|  \\    /   O peration     | Version:  v2012                                 |
|   \\  /    A nd           | Website:  www.openfoam.com                      |
|    \\/     M anipulation  |                                                 |
\*---------------------------------------------------------------------------*/
FoamFile
{
    version     2.0;
    format      ascii;
    class       volScalarField;
    location    "0.85";
    object      nut;
}
// * * * * * * * * * * * * * * * * * * * * * * * * * * * * * * * * * * * * * //

dimensions      [0 2 -1 0 0 0 0];


internalField   nonuniform List<scalar> 
2268
(
4.78994e-05
4.2877e-05
4.92787e-05
5.39076e-05
5.75353e-05
6.06054e-05
6.33512e-05
6.5845e-05
6.80874e-05
7.00543e-05
7.17224e-05
7.30814e-05
7.4146e-05
7.50086e-05
7.56097e-05
7.60353e-05
7.6462e-05
7.69793e-05
7.70745e-05
7.62833e-05
7.28564e-05
6.36239e-05
4.26105e-05
9.59605e-05
0.000205435
0.000286204
0.000350324
0.000398008
0.000435965
0.00046934
0.00050039
0.000529662
0.000556945
0.000581855
0.00060406
0.000623226
0.000638373
0.000651523
0.000663137
0.000673079
0.000680064
0.000679656
0.00065699
0.000587321
0.000436107
0.000128944
0.000106175
0.000353883
0.000512719
0.000637514
0.00073555
0.000816984
0.00088911
0.000955376
0.00101668
0.00107268
0.00112261
0.00116581
0.00120166
0.00122931
0.0012492
0.00125976
0.00125779
0.00123725
0.00118722
0.00108739
0.000911309
0.000627786
0.000147312
0.000112227
0.000469139
0.000694428
0.000871976
0.00101569
0.00113678
0.00124364
0.00134057
0.00142888
0.00150821
0.00157755
0.00163584
0.00168187
0.00171388
0.0017299
0.00172566
0.0016947
0.00162774
0.00151233
0.00133219
0.00106891
0.000704459
0.000162776
0.000115833
0.000555124
0.00083904
0.00106442
0.00124917
0.00140519
0.00154194
0.00166462
0.00177503
0.00187285
0.00195686
0.00202552
0.00207684
0.00210769
0.00211388
0.00208859
0.0020229
0.00190638
0.00172851
0.00147913
0.00114832
0.000728948
0.000181124
0.0001177
0.000617456
0.000954716
0.00122417
0.00144548
0.00163179
0.00179391
0.00193801
0.00206639
0.00217883
0.00227385
0.00234945
0.00240283
0.00242953
0.00242344
0.00237552
0.00227517
0.00211247
0.00188139
0.00157997
0.00120607
0.000754496
0.000211324
0.000118181
0.000661023
0.00104786
0.00135761
0.00161092
0.00182299
0.00200632
0.00216809
0.00231105
0.00243501
0.00253827
0.00261837
0.00267184
0.00269317
0.00267447
0.00260483
0.00247268
0.00227046
0.00200017
0.00167203
0.00129151
0.000837374
0.000261586
0.000117417
0.000689991
0.00112344
0.0014691
0.00174956
0.00198297
0.00218369
0.00235985
0.00251454
0.00264755
0.00275693
0.00283986
0.0028923
0.00290811
0.00287773
0.0027885
0.00262872
0.00239548
0.00210347
0.00178032
0.00143957
0.0010249
0.00033568
0.000111005
0.000121656
0.000136567
0.000146693
0.000153217
0.000157122
0.000160331
0.000163453
0.00016633
0.000167773
0.00016618
0.000159592
0.000148761
0.000139903
0.000135925
0.000132699
0.000125363
0.000105968
0.000108875
0.000376804
0.000484085
0.000566059
0.000724607
0.000893478
0.000991175
0.00101989
0.00105724
0.00111624
0.00117827
0.00121153
0.00117976
0.00107277
0.000963085
0.000912429
0.000874338
0.000789229
0.000626122
0.000208565
0.00041347
0.000760413
0.000998968
0.00132292
0.00155755
0.00167349
0.00173167
0.00181222
0.00192553
0.00204809
0.0021224
0.00207735
0.00186888
0.00161075
0.00143548
0.00129287
0.00109964
0.000799623
0.000225427
0.00043575
0.000991082
0.00134359
0.00170195
0.00192265
0.00202669
0.00209977
0.00222454
0.0023831
0.00255655
0.0026797
0.0026609
0.00239987
0.00201615
0.00170324
0.00144257
0.0011597
0.000800947
0.000238989
0.000450242
0.00115534
0.00155965
0.00190568
0.00210828
0.0021864
0.00223008
0.00239885
0.00261489
0.00283934
0.00299468
0.00302127
0.0027462
0.00226661
0.0018311
0.00146508
0.00111126
0.000744028
0.000240032
0.000458275
0.00124277
0.00166325
0.00201499
0.00222786
0.00231254
0.00231079
0.00253013
0.00282312
0.00306455
0.0032349
0.00328375
0.00298226
0.00242529
0.00189634
0.00144918
0.00104397
0.000675528
0.000235967
0.00046017
0.00125634
0.00169351
0.00208787
0.00233875
0.00245727
0.002482
0.00262846
0.00295753
0.00334499
0.00369318
0.0036652
0.00322022
0.00255016
0.00195094
0.00144376
0.000989803
0.000624309
0.000233829
0.000457367
0.00122722
0.0016958
0.00213462
0.00240377
0.00251472
0.00249855
0.00258142
0.00294008
0.00345239
0.00391388
0.00405431
0.00365761
0.00273466
0.0020216
0.00145927
0.00100191
0.000601348
0.000235839
0.000113294
0.00071987
0.00122086
0.00161447
0.00192976
0.00219013
0.00241274
0.00260698
0.00277628
0.0029203
0.00303668
0.00312214
0.00317165
0.00317727
0.00312821
0.00301025
0.00281356
0.00254677
0.00224759
0.00196539
0.00172012
0.00147692
0.00113122
0.000111722
0.000753492
0.00129371
0.00171651
0.00205531
0.00233582
0.00257624
0.002786
0.00296795
0.00312143
0.00324476
0.00333469
0.00338488
0.00338498
0.0033221
0.00318121
0.00295996
0.00269213
0.00245267
0.00229951
0.00221104
0.00210256
0.00185044
0.000112771
0.000777104
0.0013265
0.00175616
0.00210213
0.00238899
0.00263533
0.00285023
0.00303694
0.00319622
0.00332628
0.00342322
0.00347724
0.0034755
0.00340263
0.00324495
0.00302036
0.00280345
0.00269931
0.00273528
0.00284159
0.00290502
0.0027553
0.000132115
0.000825775
0.00136656
0.00178963
0.00212972
0.00241139
0.00265343
0.00286526
0.00305015
0.00320838
0.00333734
0.00343294
0.00348576
0.00348229
0.00340468
0.00318392
0.00289269
0.00284154
0.00298907
0.00327244
0.00359436
0.00375293
0.00364475
0.000138534
0.000796765
0.00146241
0.00198172
0.00243444
0.00284687
0.00323886
0.00361835
0.00398305
0.00432616
0.00463524
0.00488037
0.00500534
0.00494339
0.00464467
0.00400677
0.00306483
0.00290415
0.00320946
0.00383082
0.00439451
0.00438333
0.0042591
0.000146298
0.000821363
0.00156631
0.00217528
0.00271759
0.00323264
0.00373573
0.0042307
0.00471418
0.00517764
0.0055981
0.00592532
0.00609029
0.00603394
0.00574338
0.00530347
0.00494899
0.00474293
0.0046626
0.00483358
0.00489829
0.00479847
0.00474038
0.000158039
0.000939811
0.00174605
0.00242044
0.00302269
0.00359453
0.00415744
0.00472294
0.00528477
0.00583113
0.00633025
0.006723
0.00694684
0.00697232
0.00681503
0.00651271
0.00609027
0.00554787
0.00512114
0.00513626
0.00507458
0.00502271
0.00501468
0.000168499
0.0010671
0.00195478
0.00269542
0.00334774
0.00395555
0.0045461
0.00513621
0.00573477
0.00632826
0.00687655
0.00731889
0.00760016
0.00770445
0.00764496
0.00741421
0.00696553
0.00632728
0.00581096
0.00566309
0.0052972
0.00520594
0.00520282
0.000176132
0.00117877
0.00215916
0.00297117
0.0036725
0.00430935
0.00491415
0.0055101
0.00611192
0.00671817
0.00728815
0.00776043
0.0080833
0.00824213
0.00824461
0.00807239
0.00767236
0.00707611
0.0065807
0.00639255
0.00572266
0.00543788
0.00543051
0.000181403
0.00127442
0.00234707
0.00323106
0.00398208
0.00464779
0.00526393
0.00585825
0.00645036
0.00704451
0.0076146
0.0081001
0.00844947
0.00864391
0.00868759
0.0085672
0.00824403
0.00773772
0.00725764
0.00707189
0.00661971
0.00571304
0.0056867
0.000185102
0.0013576
0.00251624
0.00346867
0.00426853
0.00496417
0.00559302
0.00618533
0.0067641
0.00733883
0.00789352
0.00838175
0.00874909
0.00896997
0.00904519
0.0089703
0.00872354
0.00831364
0.00785583
0.00756834
0.00744801
0.00665601
0.00591157
0.000187716
0.00142937
0.00266565
0.003681
0.00452747
0.00525374
0.00589798
0.00649143
0.00705894
0.00761417
0.00814987
0.00863189
0.00901225
0.00925834
0.00936314
0.00932778
0.00914606
0.00882264
0.00841051
0.00803404
0.00785823
0.00767251
0.00691004
0.000189474
0.00148925
0.00279391
0.00386596
0.00475611
0.00551316
0.00617541
0.00677422
0.00733513
0.00787466
0.0083927
0.00886623
0.00925535
0.00952491
0.00966101
0.0096659
0.00954302
0.00929562
0.0089394
0.00852331
0.00818215
0.00802999
0.00788489
0.000190486
0.0015367
0.00290002
0.00402229
0.00495272
0.00574001
0.00642223
0.00703033
0.00758979
0.00811877
0.0086227
0.00908825
0.00948493
0.00977921
0.00995167
0.010001
0.00993375
0.00975393
0.00946123
0.0090634
0.00862517
0.00828833
0.00813461
0.000190821
0.00157182
0.00298377
0.00414958
0.00511648
0.00593276
0.00663596
0.00725631
0.00781875
0.00834222
0.00883598
0.00929475
0.00969767
0.0100163
0.0102286
0.0103275
0.0103173
0.0102023
0.00997915
0.00964097
0.00920835
0.00876749
0.00844008
0.000190551
0.00159543
0.00304586
0.00424825
0.00524739
0.00609069
0.00681489
0.00744927
0.00801792
0.0085399
0.00902697
0.00947996
0.00988681
0.0102261
0.0104769
0.0106275
0.0106771
0.0106283
0.0104791
0.010222
0.00986066
0.00943703
0.00903687
0.000189759
0.00160872
0.00308759
0.00431943
0.00534615
0.00621386
0.00695817
0.00760717
0.00818394
0.00870721
0.00919014
0.00963792
0.0100457
0.0103995
0.0106823
0.0108808
0.0109894
0.0110075
0.010934
0.0107647
0.0104996
0.0101593
0.00979391
0.000188538
0.00161304
0.00311071
0.00436479
0.00541411
0.00630306
0.0070658
0.00772904
0.00831466
0.00884071
0.00932103
0.00976364
0.0101691
0.0105303
0.0108353
0.0110722
0.011233
0.0113139
0.0113131
0.0112285
0.0110604
0.0108202
0.0105371
0.000186985
0.00160973
0.00311719
0.00438643
0.00545318
0.00635981
0.00713871
0.00781499
0.00840918
0.00893846
0.00941674
0.00985376
0.0102539
0.0106154
0.0109319
0.0111944
0.011395
0.0115284
0.0115911
0.0115813
0.0114994
0.0113522
0.0111574
0.0001852
0.00160023
0.00310924
0.00438684
0.00546582
0.0063863
0.00717863
0.00786617
0.00846793
0.00900002
0.00947605
0.00990665
0.0102987
0.0106546
0.0109723
0.0112469
0.0114724
0.0116431
0.011755
0.0118052
0.0117932
0.0117231
0.0116056
0.000183285
0.00158601
0.00308931
0.00436889
0.00545502
0.00638539
0.00718818
0.00788478
0.00849257
0.00902645
0.00949944
0.0099225
0.0103041
0.0106493
0.0109599
0.0112345
0.0114697
0.0116613
0.011805
0.0118976
0.0119374
0.0119259
0.0118697
0.000181341
0.00156859
0.00306
0.00433579
0.00542425
0.00636063
0.00717077
0.00787399
0.00848594
0.00902019
0.00948897
0.00990319
0.0102721
0.0106028
0.0108997
0.0111644
0.0113965
0.0115934
0.011752
0.0118691
0.0119424
0.0119717
0.0119604
0.000179462
0.00154945
0.00302402
0.00429104
0.00537745
0.00631612
0.00713053
0.00783787
0.00845195
0.00898494
0.00944814
0.00985215
0.0102066
0.0105199
0.0107982
0.0110458
0.0112645
0.0114541
0.0116131
0.0117389
0.0118292
0.0118831
0.0119019
0.000177732
0.00152991
0.00298406
0.00423828
0.00531886
0.00625646
0.00707224
0.00778123
0.0083954
0.00892547
0.0093817
0.00977422
0.0101128
0.0104064
0.0106629
0.0108883
0.0110865
0.0112596
0.0114077
0.0115297
0.0116239
0.0116892
0.0117259
0.000176218
0.0015111
0.00294266
0.00418115
0.00525288
0.00618655
0.00700109
0.00770946
0.00832181
0.00884739
0.00929538
0.00967531
0.00999685
0.0102695
0.0105021
0.0107021
0.0108753
0.0110258
0.0111555
0.0112649
0.0113534
0.0114205
0.011466
0.000174973
0.00149398
0.00290215
0.00412318
0.0051839
0.00611137
0.00692248
0.00762825
0.00823711
0.00875683
0.00919555
0.00956209
0.00986594
0.0101169
0.0103245
0.0104975
0.0106433
0.0107677
0.0108745
0.0109659
0.0110427
0.0111052
0.0111535
0.000174031
0.00147926
0.00286462
0.00406761
0.0051161
0.00603577
0.00684175
0.00754332
0.0081473
0.00866013
0.00908884
0.00944158
0.00972753
0.00995662
0.010139
0.0102845
0.010402
0.0104987
0.0105804
0.0106509
0.0107126
0.0107668
0.0108143
0.000173411
0.00146756
0.00283187
0.00401742
0.00505339
0.00596437
0.00676403
0.00746017
0.00805823
0.00856339
0.00898172
0.00932063
0.00958895
0.00979666
0.00995437
0.0100728
0.0101619
0.0102307
0.0102865
0.0103348
0.0103794
0.0104232
0.0104676
0.00017312
0.00145937
0.00280552
0.00397531
0.00499934
0.00590141
0.00669407
0.00738392
0.00797527
0.00847228
0.00888013
0.00920556
0.00945698
0.0096443
0.00977846
0.00987081
0.00993249
0.00997376
0.0100035
0.0100288
0.0100551
0.0100866
0.0101262
0.000173163
0.00145519
0.00278711
0.0039438
0.0049573
0.00585087
0.00663626
0.00731921
0.00790324
0.00839176
0.00878923
0.00910178
0.0093374
0.00950581
0.00961805
0.00968598
0.00972155
0.00973618
0.00974008
0.00974206
0.00974979
0.00976856
0.00980174
0.000173551
0.00145561
0.00277822
0.00392543
0.00493056
0.00581656
0.00659467
0.00727022
0.00784633
0.00832598
0.00871317
0.00901357
0.00923474
0.00938607
0.00947855
0.00952421
0.00953557
0.0095249
0.00950394
0.0094833
0.00947153
0.00947525
0.00949893
0.000174313
0.00146143
0.00278077
0.00392302
0.00492258
0.00580228
0.00657323
0.00724077
0.0078081
0.00827823
0.00865503
0.00894392
0.00915205
0.00928843
0.0093637
0.00938982
0.00937947
0.00934573
0.00930129
0.00925765
0.00922471
0.00921047
0.00922067
0.000175511
0.00147383
0.00279714
0.00393985
0.00493716
0.00581198
0.0065757
0.00723424
0.00779144
0.00825086
0.00861671
0.0088944
0.00909081
0.00921447
0.00927549
0.00928535
0.0092566
0.00920242
0.00913581
0.0090691
0.00901338
0.00897801
0.00897014
0.000177252
0.0014944
0.00283029
0.00397966
0.00497834
0.00584955
0.00660551
0.00725335
0.00779828
0.00824504
0.00859869
0.00886499
0.00905072
0.00916388
0.00921385
0.0092113
0.00916809
0.00909682
0.00901039
0.0089215
0.00884208
0.00878272
0.00875207
0.000179702
0.0015251
0.00288347
0.00404625
0.00504981
0.00591817
0.00666502
0.00729954
0.00782908
0.00826033
0.00859975
0.00885385
0.0090295
0.00913421
0.00917647
0.00916583
0.00911292
0.00902924
0.00892693
0.00881841
0.00871592
0.00863093
0.00857347
0.000183091
0.00156778
0.00295909
0.00414191
0.00515334
0.00601876
0.00675419
0.00737177
0.0078819
0.00829397
0.00861644
0.00885697
0.00902271
0.00912075
0.0091586
0.00914453
0.00908758
0.00899764
0.00888542
0.00876229
0.00863997
0.00853013
0.00844372
0.0001877
0.0016227
0.00305613
0.00426464
0.00528613
0.00614777
0.00686875
0.00746514
0.00795135
0.0083402
0.0086427
0.00886802
0.00902377
0.00911658
0.0091531
0.00914028
0.00908551
0.00899676
0.00888274
0.00875293
0.0086176
0.00848756
0.00837372
0.000193794
0.00168552
0.00316625
0.00440474
0.00543814
0.00629516
0.00699882
0.0075701
0.00802826
0.00839024
0.0086701
0.0088788
0.0090245
0.00911326
0.00915095
0.00914351
0.00909694
0.00901733
0.00891113
0.00878537
0.0086479
0.00850744
0.00837349
0.000201463
0.00174431
0.00327165
0.00454367
0.00559159
0.0064444
0.00712938
0.00767326
0.00810087
0.00843376
0.00868937
0.0088808
0.00901677
0.00910242
0.00914273
0.00914333
0.00910957
0.00904617
0.00895749
0.00884797
0.00872254
0.00858686
0.00844749
0.000210437
0.001781
0.00334987
0.00465874
0.00572487
0.00657576
0.00724333
0.00776056
0.00815812
0.00846226
0.00869394
0.00886863
0.00899539
0.00907852
0.00912101
0.00912972
0.00911064
0.00906787
0.00900425
0.00892207
0.00882355
0.00871115
0.00858779
0.000219611
0.00178813
0.00338715
0.00473325
0.00581978
0.00667185
0.00732608
0.00782146
0.00819384
0.00847345
0.00868437
0.00884422
0.0089608
0.00904254
0.00908344
0.0090965
0.00909005
0.00906813
0.00903264
0.00898446
0.00892407
0.00885173
0.00876752
0.00022679
0.00177466
0.00339179
0.00476531
0.00586745
0.00672189
0.00736893
0.00785163
0.00820904
0.00847364
0.00867111
0.00881874
0.00891657
0.00900637
0.00903482
0.00904351
0.00904364
0.0090382
0.00902805
0.0090134
0.00899418
0.00897009
0.00894061
0.000368723
0.000316509
0.000318331
0.000369552
0.00140773
0.00112759
0.000894722
0.000776517
0.00245522
0.00224109
0.00195474
0.00173922
0.00335579
0.00317174
0.00294973
0.00272406
0.0039081
0.00329654
0.00308364
0.00298165
0.00466361
0.00414599
0.00342187
0.00310853
0.00505333
0.00502975
0.00447854
0.00389978
0.00523471
0.00527319
0.00527377
0.00471676
0.00547415
0.0055109
0.00556478
0.00564077
0.00573624
0.0057927
0.00585797
0.00592022
0.00599543
0.00604647
0.00611123
0.00618993
0.00611604
0.00619161
0.00635112
0.00641161
0.00747395
0.00712931
0.00666376
0.00652526
0.00807189
0.00798081
0.00776311
0.00745535
0.00830783
0.00823701
0.00818327
0.00812148
0.00881355
0.00867129
0.00856452
0.00849015
0.00955181
0.00937897
0.00922874
0.00910552
0.0103281
0.0101691
0.0100187
0.00988183
0.0109992
0.010872
0.0107445
0.0106195
0.0114971
0.0114033
0.0113037
0.0111998
0.011803
0.011738
0.0116642
0.011582
0.011926
0.0118839
0.0118317
0.0117691
0.0118911
0.0118664
0.0118315
0.0117855
0.0117313
0.0117194
0.0116979
0.0116659
0.0114821
0.0114794
0.0114684
0.0114483
0.0111765
0.0111808
0.0111785
0.0111688
0.0108421
0.0108518
0.010857
0.0108568
0.0104985
0.0105128
0.0105246
0.0105331
0.0101591
0.0101771
0.0101948
0.0102114
0.00983478
0.00985515
0.00987719
0.00990023
0.00952935
0.00955014
0.00957447
0.00960172
0.00924491
0.00926365
0.00928764
0.00931633
0.00898398
0.00899772
0.00901821
0.00904504
0.00875086
0.00875632
0.00876976
0.0087909
0.0085526
0.00854641
0.00854897
0.00856024
0.00839946
0.00837857
0.00836656
0.00836368
0.0083046
0.00826715
0.00823777
0.008217
0.00828238
0.00822906
0.00818179
0.00814136
0.00834393
0.00827979
0.00821853
0.00816097
0.00848904
0.00842489
0.0083601
0.00829517
0.00869572
0.00864705
0.00859561
0.00854138
0.00891416
0.00889557
0.00887519
0.00885283
0.00054368
0.00123854
0.00171352
0.00213757
0.00243441
0.00256081
0.00252356
0.00248785
0.00273438
0.00346629
0.00399816
0.00420995
0.00416495
0.0035443
0.00234134
0.00168157
0.00133305
0.000704455
0.000243135
0.000826551
0.00157305
0.00205459
0.00232608
0.00247828
0.00257335
0.00251091
0.00240785
0.00251927
0.00334998
0.00405229
0.00428883
0.00428207
0.00384275
0.00274872
0.00213794
0.00166876
0.00103881
0.000358568
0.00162224
0.00218972
0.00248079
0.002625
0.00270216
0.00275193
0.0025703
0.00241707
0.00261509
0.00352636
0.00421754
0.00445325
0.00438005
0.00367834
0.00275612
0.00226852
0.00162116
0.000974739
0.000329219
0.00252305
0.00281785
0.00288308
0.00282665
0.00277071
0.00276936
0.00263128
0.00260718
0.0029843
0.00390085
0.00442348
0.00471599
0.00464635
0.00371648
0.0027341
0.00219874
0.00136594
0.000772203
0.000288411
0.00282889
0.00292565
0.00289544
0.00295401
0.00302212
0.00297867
0.00293538
0.00302167
0.00348483
0.00414425
0.00465354
0.00502793
0.00512535
0.00418261
0.0029122
0.00228007
0.0012005
0.000596915
0.000301201
0.00290971
0.00305992
0.00321739
0.00314494
0.00317486
0.00323383
0.00323825
0.00341926
0.00385876
0.00437563
0.00488655
0.00528613
0.00545306
0.00489608
0.00320212
0.00271109
0.00110472
0.000500708
0.000323215
0.00349265
0.00318863
0.00314428
0.00322071
0.00333203
0.00342306
0.00347422
0.00368085
0.00407538
0.0046221
0.00511502
0.00542104
0.00556287
0.00518464
0.0035152
0.00308381
0.00169934
0.000482617
0.000342699
0.00403015
0.00335394
0.00326951
0.00335687
0.00344935
0.00348268
0.00356602
0.00379233
0.00443293
0.00502974
0.00531796
0.00543033
0.0055459
0.00518808
0.00377401
0.00330654
0.00259243
0.000692115
0.000359713
0.00505313
0.00378462
0.00348823
0.00346755
0.0034631
0.00352905
0.00370264
0.00435025
0.00533479
0.00542707
0.00544289
0.0053038
0.00542098
0.00511764
0.00403423
0.00352502
0.00330448
0.00152215
0.000450289
0.00604601
0.00490504
0.00406823
0.00379276
0.00378222
0.00401836
0.00468848
0.00571191
0.00579395
0.00567617
0.00556539
0.00506849
0.00504594
0.00491428
0.00419761
0.00370386
0.00345706
0.00308053
0.000595986
0.00628819
0.00643366
0.00627017
0.00544088
0.00570313
0.00611387
0.00627811
0.00626158
0.00603753
0.00580903
0.00525482
0.00479089
0.00477325
0.00469139
0.00423834
0.0038362
0.00428861
0.00385897
0.000451505
0.00649628
0.0065794
0.0066105
0.0065783
0.00652706
0.00654513
0.00651253
0.00640248
0.00617801
0.0059368
0.00485518
0.00463548
0.00454712
0.00440771
0.00409093
0.00429576
0.00490834
0.00374656
0.00036492
0.00662984
0.00665116
0.00669364
0.00669356
0.00666551
0.00663466
0.00656704
0.00645502
0.00624714
0.00531462
0.00475438
0.00451673
0.00435408
0.00424088
0.00438938
0.00479273
0.00487567
0.00329169
0.000406051
0.00679994
0.00667266
0.00674331
0.00672963
0.00670975
0.00668375
0.00658802
0.0064247
0.0059764
0.00526681
0.00480796
0.00455089
0.00442486
0.00450731
0.00475646
0.00504177
0.00471996
0.00306874
0.000414883
0.00794166
0.00763655
0.00702328
0.00680703
0.00679507
0.00696399
0.00740119
0.00702964
0.00642311
0.00566191
0.00508913
0.00476294
0.00467768
0.00479983
0.00504725
0.00518912
0.00451056
0.00293799
0.000419366
0.00842075
0.00838637
0.00828607
0.00835078
0.00852595
0.00861129
0.00855533
0.00798595
0.00718086
0.00630925
0.00557805
0.0051288
0.00498798
0.00510558
0.00533509
0.00531383
0.00426933
0.00282465
0.000421167
0.00895789
0.00892154
0.00898857
0.00920572
0.00942995
0.009491
0.00930403
0.0087184
0.00788232
0.00696169
0.00612275
0.00555203
0.00533339
0.00542251
0.00559929
0.00544896
0.00416018
0.00275682
0.000415713
0.00968846
0.00959854
0.00961568
0.00975897
0.00992135
0.00995689
0.00975801
0.00923217
0.00842185
0.00750064
0.00661938
0.00597774
0.00569687
0.00573994
0.00583584
0.00560637
0.00437225
0.00273054
0.00040506
0.010425
0.0102877
0.0102359
0.0102634
0.0103066
0.0102586
0.0100209
0.00952445
0.00878348
0.00790603
0.00703944
0.00638344
0.00606433
0.00603564
0.00604897
0.00580507
0.00481865
0.00277963
0.000400384
0.0110257
0.0108657
0.0107587
0.0106908
0.0106237
0.0104828
0.0101924
0.00970188
0.00901705
0.00819476
0.00738114
0.00674828
0.00640465
0.00630791
0.00626208
0.00603054
0.00523613
0.00303792
0.000404961
0.0114354
0.0112721
0.0111301
0.0110014
0.010859
0.0106502
0.0103186
0.00982785
0.009175
0.0084113
0.0076605
0.00706354
0.00670777
0.00656101
0.0064762
0.00625593
0.00557081
0.00347257
0.000412869
0.0116504
0.0114974
0.0113407
0.0111803
0.0109961
0.0107508
0.0104005
0.00991384
0.00929302
0.00858943
0.00790077
0.00734048
0.00698065
0.00680116
0.00668964
0.00647077
0.00584353
0.00405459
0.000439118
0.011693
0.0115592
0.0114057
0.0112351
0.0110348
0.010777
0.0104279
0.00996371
0.00938899
0.00874716
0.0081179
0.00759362
0.00723593
0.0070362
0.0069044
0.00667773
0.0060745
0.00453837
0.000607093
0.0115973
0.0114883
0.0113517
0.0111895
0.0109934
0.0107436
0.0104149
0.00998911
0.00946985
0.00889222
0.00832121
0.00783342
0.00748372
0.007272
0.00712218
0.0068784
0.00626572
0.00479116
0.00084987
0.0114016
0.011321
0.011211
0.0110719
0.010897
0.0106717
0.0103772
0.00999937
0.00954071
0.00902865
0.00851567
0.00806574
0.00772848
0.00750886
0.00733881
0.00706504
0.00640317
0.00481826
0.000719899
0.0111425
0.0110926
0.0110154
0.0109094
0.0107679
0.0105788
0.0103275
0.0100029
0.00960647
0.0091593
0.00870332
0.00829172
0.00796863
0.00774067
0.00754352
0.00722348
0.00648278
0.00476083
0.000646917
0.01085
0.0108319
0.0107913
0.0107242
0.0106233
0.0104776
0.0102746
0.0100052
0.00967002
0.00928505
0.00888337
0.00850848
0.0081981
0.00795735
0.00772285
0.00734006
0.00650786
0.00468616
0.000566919
0.0105447
0.0105588
0.0105563
0.0105308
0.0104738
0.0103746
0.0102219
0.0100074
0.00973072
0.00940386
0.0090523
0.00871058
0.00840898
0.00814872
0.00786601
0.00740774
0.00648413
0.00459525
0.000440051
0.0102402
0.0102848
0.0103193
0.0103353
0.0103227
0.0102705
0.0101676
0.0100061
0.00978443
0.00951097
0.00920464
0.00889162
0.00859416
0.00830817
0.00796949
0.00742999
0.00642115
0.00446217
0.000411693
0.0099434
0.0100147
0.0100829
0.0101381
0.0101682
0.0101614
0.0101065
0.00999512
0.00982459
0.00959982
0.00933399
0.00904557
0.00874879
0.00843402
0.00803779
0.00742034
0.00633927
0.00433523
0.000420105
0.00965538
0.00974837
0.0098455
0.00993577
0.0100053
0.0100411
0.0100313
0.00996692
0.00984363
0.0096633
0.00943402
0.00916734
0.00887016
0.00852805
0.00808
0.00739412
0.00625854
0.00425685
0.000414463
0.00937568
0.0094839
0.00960387
0.00972373
0.00982824
0.00990293
0.00993489
0.00991399
0.00983427
0.00969476
0.00949908
0.00925284
0.00895665
0.00859212
0.0081007
0.00736149
0.00618601
0.00419927
0.000411484
0.00910435
0.0092199
0.00935526
0.0094979
0.00963217
0.00974128
0.00981107
0.00983005
0.00979046
0.00968871
0.00952462
0.00929887
0.00900693
0.00862744
0.00810436
0.00732717
0.00612202
0.00414179
0.000410828
0.00884354
0.00895701
0.00909877
0.00925635
0.00941377
0.0095521
0.00965548
0.0097107
0.00970805
0.00964144
0.00950756
0.00930319
0.00901992
0.00863428
0.00809275
0.00729294
0.00606752
0.00407666
0.000413319
0.00859875
0.00869899
0.00883635
0.00899924
0.00917175
0.0093333
0.00946579
0.00955378
0.00958519
0.00955147
0.00944669
0.00926483
0.00899482
0.00861197
0.00806511
0.00725797
0.00602734
0.00401914
0.00042265
0.00838007
0.00845406
0.00857371
0.00872969
0.00890692
0.00908465
0.00924156
0.00935934
0.0094227
0.00941999
0.00934329
0.0091849
0.00893202
0.00855937
0.00801834
0.00721896
0.00601007
0.00403035
0.000447026
0.00820355
0.00823674
0.00832234
0.00845529
0.0086233
0.0088077
0.00898386
0.00912956
0.00922437
0.00925231
0.00920298
0.00906732
0.00883225
0.00847347
0.00794467
0.00716931
0.00600761
0.00404862
0.000515289
0.00809268
0.00807089
0.0081033
0.00819189
0.00833091
0.00850663
0.00869495
0.00886839
0.00899676
0.00905668
0.00903366
0.00891834
0.00869876
0.00835041
0.00783509
0.00709579
0.00595449
0.00388158
0.000510498
0.00807808
0.00799324
0.00795407
0.00797164
0.00805159
0.00819196
0.00837927
0.00858203
0.00875035
0.00884517
0.00884768
0.00874859
0.00853694
0.00819244
0.00768491
0.0069669
0.0058365
0.00370289
0.00050339
0.00819167
0.00805379
0.00793783
0.00786069
0.00784134
0.00789933
0.0080508
0.00828021
0.00850219
0.00863805
0.0086647
0.0085746
0.00835711
0.00799446
0.00747311
0.0067868
0.00567253
0.00358513
0.000506828
0.00844815
0.00830198
0.00814492
0.0079862
0.00784361
0.00775006
0.00776597
0.00796818
0.00827698
0.00846374
0.00851254
0.0084235
0.00818438
0.00776923
0.00717715
0.00657922
0.00558793
0.00356532
0.000526457
0.00881201
0.00874015
0.00864905
0.00853302
0.00838332
0.00817877
0.00787152
0.00760082
0.00810596
0.00835635
0.0084232
0.00833184
0.00806693
0.00758322
0.00702631
0.00682631
0.00614942
0.00407434
0.000513629
)
;

boundaryField
{
    leftWall
    {
        type            nutkWallFunction;
        blending        stepwise;
        Cmu             0.09;
        kappa           0.41;
        E               9.8;
        value           nonuniform List<scalar> 
50
(
9.05908e-06
1.14653e-05
1.25745e-05
1.32021e-05
1.3544e-05
1.36799e-05
1.36516e-05
1.34803e-05
1.29084e-05
1.27722e-05
1.29516e-05
1.60941e-05
1.2827e-05
1.2912e-05
1.45156e-05
1.59011e-05
1.68651e-05
1.75189e-05
1.79741e-05
1.82901e-05
1.84929e-05
1.85947e-05
1.86049e-05
1.85337e-05
1.83933e-05
1.8197e-05
1.79588e-05
1.76929e-05
1.74137e-05
1.71353e-05
1.68706e-05
1.6631e-05
1.64257e-05
1.62613e-05
1.61419e-05
1.60694e-05
1.60445e-05
1.60673e-05
1.6139e-05
1.62637e-05
1.64505e-05
1.6715e-05
1.70816e-05
1.75852e-05
1.82702e-05
1.91851e-05
2.03625e-05
2.17811e-05
2.32686e-05
2.44639e-05
)
;
    }
    rightWall
    {
        type            nutkWallFunction;
        blending        stepwise;
        Cmu             0.09;
        kappa           0.41;
        E               9.8;
        value           nonuniform List<scalar> 
50
(
2.13153e-05
2.41416e-05
2.60115e-05
2.75682e-05
2.78162e-05
2.7356e-05
2.69655e-05
2.69046e-05
2.73776e-05
3.51448e-05
3.61619e-05
3.25802e-05
3.33623e-05
3.51612e-05
3.67495e-05
3.83684e-05
4.57839e-05
5.87998e-05
5.85979e-05
5.22188e-05
4.64605e-05
4.55309e-05
4.53561e-05
4.5382e-05
4.52466e-05
4.4743e-05
4.41373e-05
4.38882e-05
4.41342e-05
4.75503e-05
5.47898e-05
6.88648e-05
7.53168e-05
7.61436e-05
7.26778e-05
6.45196e-05
5.40685e-05
5.08635e-05
4.92677e-05
4.82904e-05
4.77704e-05
4.76502e-05
4.81359e-05
5.07355e-05
5.51933e-05
5.89897e-05
5.98616e-05
6.11714e-05
6.41995e-05
6.28908e-05
)
;
    }
    lowerWall
    {
        type            nutkWallFunction;
        blending        stepwise;
        Cmu             0.09;
        kappa           0.41;
        E               9.8;
        value           nonuniform List<scalar> 
62
(
4.28192e-06
5.2391e-06
6.02542e-06
6.58165e-06
7.01066e-06
7.37052e-06
7.69149e-06
7.98336e-06
8.24678e-06
8.47892e-06
8.67654e-06
8.8378e-06
8.9637e-06
9.06117e-06
9.11913e-06
9.14566e-06
9.15875e-06
9.17749e-06
9.15664e-06
9.04936e-06
8.68123e-06
7.68451e-06
5.31853e-06
5.31853e-06
1.53338e-05
1.73346e-05
1.90128e-05
2.09319e-05
2.39208e-05
2.87065e-05
3.54713e-05
3.91363e-05
3.45057e-05
3.56834e-05
4.01755e-05
1.34744e-05
4.14289e-05
4.49563e-05
4.70539e-05
4.82992e-05
4.88184e-05
4.87232e-05
4.82586e-05
1.34744e-05
1.46682e-05
1.63428e-05
1.74292e-05
1.80894e-05
1.84671e-05
1.88047e-05
1.91737e-05
1.95556e-05
1.98097e-05
1.9771e-05
1.92331e-05
1.81603e-05
1.70809e-05
1.64858e-05
1.60657e-05
1.52223e-05
1.29366e-05
9.56599e-06
)
;
    }
    atmosphere
    {
        type            calculated;
        value           nonuniform List<scalar> 
46
(
0.00022679
0.00177466
0.00339179
0.00476531
0.00586745
0.00672189
0.00736893
0.00785163
0.00820904
0.00847364
0.00867111
0.00881874
0.00891657
0.009
0.009
0.009
0.009
0.009
0.009
0.009
0.009
0.009
0.009
0.009
0.009
0.009
0.009
0.009
0.009
0.009
0.009
0.009
0.009
0.009
0.009
0.00810596
0.00835635
0.0084232
0.00833184
0.00806693
0.00758322
0.009
0.009
0.009
0.009
0.000513629
)
;
    }
    defaultFaces
    {
        type            empty;
    }
}


// ************************************************************************* //
