/*--------------------------------*- C++ -*----------------------------------*\
| =========                 |                                                 |
| \\      /  F ield         | OpenFOAM: The Open Source CFD Toolbox           |
|  \\    /   O peration     | Version:  v2012                                 |
|   \\  /    A nd           | Website:  www.openfoam.com                      |
|    \\/     M anipulation  |                                                 |
\*---------------------------------------------------------------------------*/
FoamFile
{
    version     2.0;
    format      ascii;
    class       volScalarField;
    location    "0.85";
    object      p;
}
// * * * * * * * * * * * * * * * * * * * * * * * * * * * * * * * * * * * * * //

dimensions      [1 -1 -2 0 0 0 0];


internalField   nonuniform List<scalar> 
2268
(
779.773
773.577
767.327
761.823
757.787
755.221
754.177
754.729
756.953
760.9
766.587
774.004
783.112
793.827
805.911
819.021
832.429
844.915
855.117
861.425
861.884
856.343
846.352
722.107
715.204
708.682
703.329
699.459
696.934
695.832
696.266
698.341
702.121
707.634
714.878
723.808
734.33
746.195
759.02
772.223
784.964
795.196
801.058
800.87
794.747
785.143
662.871
655.915
649.703
644.67
640.937
638.426
637.266
637.597
639.538
643.16
648.493
655.543
664.27
674.561
686.181
698.724
711.608
724.011
734.235
740.021
739.481
732.646
722.953
602.462
595.788
590.147
585.442
581.81
579.293
578.08
578.335
580.184
583.694
588.895
595.8
604.379
614.531
626.029
638.477
651.295
663.638
673.891
679.828
679.028
670.591
659.689
541.344
535.064
529.986
525.547
521.985
519.456
518.208
518.426
520.235
523.687
528.806
535.62
544.121
554.234
565.748
578.294
591.325
604.014
614.758
621.138
620.029
609.355
595.582
479.629
473.843
469.262
465.005
461.475
458.93
457.672
457.899
459.723
463.167
468.243
475.004
483.484
493.643
505.284
518.081
531.542
544.886
556.435
563.471
562.25
549.499
531.004
417.301
412.143
407.99
403.829
400.295
397.738
396.502
396.79
398.686
402.169
407.229
413.964
422.463
432.737
444.596
457.762
471.819
486.041
498.595
506.363
504.82
489.175
464.74
354.439
349.967
346.14
342.007
338.446
335.902
334.737
335.151
337.189
340.76
345.823
352.538
361.081
371.532
383.695
397.329
412.083
427.289
440.915
449.32
446.225
423.452
387.443
1121.96
1075.86
949.6
790.727
685.709
630.777
598.629
583.066
584.431
605.507
639.816
666.693
669.78
664.709
664.528
665.148
656.048
634.023
628.264
1097.65
1024.54
873.302
700.686
604.133
559.938
533.549
516.038
512.229
528.301
561.089
592.699
600.64
596.356
594.54
593.964
586.536
569.283
571.845
1078.91
943.339
759.96
597.54
523.175
492.992
469.345
449.086
439.491
449.878
480.484
518.371
530.762
525.919
521.936
520.737
518.919
512.353
515.991
1022.83
828.51
627.685
489.256
440.177
427.343
407.076
385.376
372.318
377.862
405.345
449.669
464.51
456.734
448.933
445.836
449.736
457.95
464.433
919.99
692.45
490.696
379.135
355.965
368.533
360.329
347.031
337.114
336.98
353.696
393.632
402.385
387.358
374.484
366.901
372.853
399.328
414.117
779.752
547.719
356.801
274.973
276.538
323.887
340.295
335.858
327.627
324.7
340.111
369.768
351.234
315.718
296.539
283.086
286.849
330.253
362.727
620.977
411.987
253.453
209.493
215.079
277.776
328.353
332.012
321.983
318.041
335.875
365.44
321.997
258.014
233.548
221.868
221.118
255.411
307.745
462.546
310.352
205.61
184.456
186.46
241.99
307.34
325.84
315.857
310.129
322.248
343.545
295.03
231.894
209.686
203.936
201.868
205.639
247.082
255.41
251.811
248.077
243.855
240.262
237.858
236.974
237.78
240.233
244.058
249.128
255.793
264.425
275.293
288.068
302.606
318.647
335.793
351.888
362.353
356.87
318.865
242.964
118.668
115.433
111.591
107.436
104.322
102.653
102.492
103.74
106.176
109.571
114.251
120.865
130.028
141.994
155.274
170.932
189.09
210.669
233.05
252.142
258.989
230.28
165.362
23.8643
21.9749
20.2275
18.548
17.4963
17.1077
17.3167
17.9626
18.8896
20.0899
22.0352
24.9694
29.1971
34.4068
40.9675
49.2887
63.8215
85.7722
108.114
136.964
175.397
170.041
132.816
-0.115682
-0.261051
-0.155205
-0.177674
-0.222673
-0.265207
-0.296423
-0.312162
-0.311377
-0.299146
-0.286715
-0.271687
-0.245431
-0.195484
-0.0835428
0.394785
3.15818
9.89624
20.076
43.9638
94.7676
112.844
80.4214
-0.507936
-0.56749
-0.550184
-0.550521
-0.548061
-0.541759
-0.531498
-0.516846
-0.497533
-0.473578
-0.445135
-0.411177
-0.371258
-0.324991
-0.269958
-0.184419
0.00879932
0.643619
3.40236
13.044
32.4673
60.3464
54.9356
-0.664189
-0.67604
-0.667253
-0.665995
-0.663096
-0.658091
-0.649783
-0.637246
-0.620058
-0.598242
-0.571641
-0.5388
-0.496965
-0.44196
-0.368195
-0.278803
-0.197944
-0.111814
0.200273
1.59443
6.49327
25.0966
34.072
-0.80054
-0.79893
-0.791638
-0.788872
-0.786902
-0.783822
-0.777755
-0.767551
-0.752783
-0.733532
-0.709739
-0.680251
-0.642715
-0.594377
-0.532461
-0.456242
-0.384231
-0.399839
-0.628415
-0.833329
0.130025
7.80315
23.9694
-0.946093
-0.94333
-0.938348
-0.934666
-0.931271
-0.926884
-0.920204
-0.910384
-0.89712
-0.880469
-0.860428
-0.836429
-0.807458
-0.773301
-0.736032
-0.700671
-0.681914
-0.730224
-0.908169
-1.08289
-0.980173
0.0071039
6.91281
-1.09206
-1.08891
-1.08512
-1.08163
-1.07802
-1.07352
-1.06729
-1.05877
-1.04785
-1.03483
-1.02004
-1.00356
-0.985576
-0.967632
-0.954543
-0.955655
-0.986786
-1.07379
-1.23053
-1.40913
-1.6076
-1.61039
-1.99482
-1.23723
-1.23388
-1.2307
-1.22788
-1.22506
-1.22163
-1.21695
-1.21066
-1.20286
-1.19414
-1.18528
-1.17701
-1.17029
-1.1676
-1.17454
-1.20091
-1.26069
-1.37127
-1.53924
-1.73226
-1.94239
-2.15796
-2.69183
-1.38351
-1.38043
-1.3778
-1.37569
-1.37383
-1.37171
-1.36884
-1.36502
-1.3605
-1.35609
-1.35294
-1.35225
-1.35549
-1.36538
-1.38712
-1.42909
-1.50202
-1.61703
-1.77991
-1.97477
-2.16058
-2.28801
-2.32639
-1.53064
-1.52804
-1.52598
-1.52459
-1.52372
-1.52295
-1.52191
-1.5205
-1.51909
-1.51862
-1.52042
-1.52597
-1.537
-1.55612
-1.58765
-1.63799
-1.71485
-1.82473
-1.97002
-2.14389
-2.3189
-2.43064
-2.38702
-1.67803
-1.67596
-1.67445
-1.67378
-1.67388
-1.67442
-1.67513
-1.67597
-1.67735
-1.68024
-1.68603
-1.69629
-1.7128
-1.73791
-1.77506
-1.82884
-1.90448
-2.00616
-2.13411
-2.28368
-2.44311
-2.58886
-2.70628
-1.82546
-1.82387
-1.82287
-1.82284
-1.82381
-1.82553
-1.8278
-1.8306
-1.83437
-1.84001
-1.84886
-1.86243
-1.88239
-1.9108
-1.95038
-2.00433
-2.07601
-2.16823
-2.28128
-2.4113
-2.55172
-2.69349
-2.8313
-1.97274
-1.97157
-1.97099
-1.97148
-1.97315
-1.97585
-1.97942
-1.98388
-1.98958
-1.99739
-2.00849
-2.02423
-2.04607
-2.07575
-2.11543
-2.16742
-2.23376
-2.31606
-2.41481
-2.52784
-2.65041
-2.77703
-2.904
-2.11965
-2.11881
-2.11853
-2.1194
-2.1216
-2.12506
-2.12966
-2.13542
-2.14265
-2.15206
-2.16471
-2.18178
-2.20442
-2.23402
-2.27227
-2.32092
-2.38126
-2.45399
-2.53926
-2.63599
-2.74124
-2.85102
-2.96179
-2.26602
-2.26538
-2.26529
-2.26639
-2.26893
-2.27291
-2.27828
-2.28503
-2.29337
-2.3039
-2.31753
-2.33526
-2.358
-2.38674
-2.42273
-2.46731
-2.5214
-2.58525
-2.65858
-2.74052
-2.82919
-2.92165
-3.0145
-2.41167
-2.41113
-2.41113
-2.41232
-2.41501
-2.41929
-2.42516
-2.43259
-2.4417
-2.45293
-2.46704
-2.4849
-2.50724
-2.53471
-2.56814
-2.60849
-2.65644
-2.71211
-2.77501
-2.84426
-2.91834
-2.99486
-3.07072
-2.55647
-2.55597
-2.55596
-2.55714
-2.55983
-2.5642
-2.57031
-2.57812
-2.58768
-2.59926
-2.61346
-2.63101
-2.65253
-2.67848
-2.70932
-2.74565
-2.78792
-2.83619
-2.88999
-2.94846
-3.01028
-3.07339
-3.13514
-2.70035
-2.69985
-2.69979
-2.70088
-2.70345
-2.70773
-2.71383
-2.72176
-2.73148
-2.74313
-2.7571
-2.77401
-2.79438
-2.81858
-2.84687
-2.8795
-2.91673
-2.95852
-3.00448
-3.05386
-3.1055
-3.15768
-3.20821
-2.84327
-2.84273
-2.84262
-2.84361
-2.846
-2.85004
-2.85593
-2.86371
-2.87334
-2.88482
-2.89837
-2.91442
-2.93343
-2.95571
-2.98143
-3.01068
-3.04348
-3.07974
-3.11909
-3.16088
-3.20416
-3.24751
-3.2892
-2.9852
-2.98462
-2.98448
-2.98537
-2.98756
-2.9913
-2.99683
-3.00424
-3.01353
-3.02464
-3.03763
-3.05274
-3.07031
-3.09062
-3.11381
-3.1399
-3.1688
-3.20034
-3.23415
-3.26969
-3.30616
-3.34241
-3.37711
-3.12613
-3.12551
-3.12536
-3.12619
-3.1282
-3.13163
-3.1367
-3.14359
-3.15234
-3.16288
-3.17518
-3.18932
-3.20549
-3.22391
-3.2447
-3.26786
-3.29328
-3.32075
-3.34992
-3.38031
-3.41126
-3.44183
-3.47102
-3.26605
-3.26541
-3.26526
-3.26607
-3.26795
-3.27109
-3.2757
-3.28198
-3.29004
-3.29983
-3.31131
-3.32444
-3.33928
-3.35596
-3.37455
-3.39505
-3.41738
-3.44132
-3.46656
-3.49268
-3.51914
-3.54517
-3.57
-3.40497
-3.40431
-3.40418
-3.405
-3.4068
-3.4097
-3.41389
-3.41956
-3.42686
-3.43579
-3.44632
-3.45838
-3.47193
-3.487
-3.50361
-3.52176
-3.54135
-3.56223
-3.58412
-3.60667
-3.62944
-3.65179
-3.67315
-3.5429
-3.54223
-3.54214
-3.54297
-3.54473
-3.54746
-3.55129
-3.55642
-3.56296
-3.571
-3.58052
-3.59144
-3.60371
-3.61728
-3.63211
-3.64817
-3.66538
-3.6836
-3.70262
-3.72217
-3.74187
-3.76121
-3.77976
-3.67987
-3.67921
-3.67914
-3.68
-3.68173
-3.68433
-3.68789
-3.69255
-3.69842
-3.7056
-3.71411
-3.72391
-3.73492
-3.74706
-3.76027
-3.77449
-3.78962
-3.80555
-3.82212
-3.83912
-3.85625
-3.87311
-3.88937
-3.81594
-3.81528
-3.81524
-3.8161
-3.81781
-3.82031
-3.82365
-3.82792
-3.83323
-3.83965
-3.84723
-3.85595
-3.86576
-3.87656
-3.88829
-3.90086
-3.91418
-3.92814
-3.94263
-3.95747
-3.97246
-3.98727
-4.00163
-3.95118
-3.95052
-3.95049
-3.95133
-3.953
-3.9554
-3.95856
-3.96252
-3.96735
-3.97312
-3.97988
-3.98762
-3.99632
-4.0059
-4.01628
-4.02737
-4.0391
-4.05137
-4.06408
-4.07711
-4.09029
-4.10337
-4.11616
-4.08564
-4.085
-4.08496
-4.08577
-4.08736
-4.08965
-4.09263
-4.09632
-4.10075
-4.10597
-4.11202
-4.1189
-4.12659
-4.13506
-4.14422
-4.15401
-4.16434
-4.17514
-4.18632
-4.19779
-4.20943
-4.22105
-4.2325
-4.2194
-4.21878
-4.21872
-4.21948
-4.22098
-4.22314
-4.22593
-4.22936
-4.23343
-4.23816
-4.24359
-4.24971
-4.25653
-4.264
-4.27207
-4.28069
-4.28978
-4.29929
-4.30914
-4.31926
-4.32956
-4.3399
-4.35016
-4.35254
-4.35194
-4.35187
-4.35256
-4.35394
-4.35595
-4.35854
-4.3617
-4.36542
-4.36971
-4.37458
-4.38003
-4.38606
-4.39264
-4.39974
-4.40731
-4.4153
-4.42365
-4.43232
-4.44125
-4.45036
-4.45954
-4.46872
-4.48514
-4.48455
-4.48447
-4.48509
-4.48635
-4.48818
-4.49055
-4.49344
-4.49681
-4.50067
-4.50502
-4.50985
-4.51516
-4.52094
-4.52716
-4.53378
-4.54077
-4.54809
-4.5557
-4.56354
-4.57157
-4.57969
-4.58785
-4.61726
-4.6167
-4.61661
-4.61715
-4.61828
-4.61993
-4.62207
-4.62465
-4.62767
-4.6311
-4.63495
-4.6392
-4.64385
-4.64889
-4.65431
-4.66007
-4.66615
-4.67253
-4.67916
-4.68601
-4.69304
-4.70016
-4.70736
-4.74898
-4.74846
-4.74837
-4.74884
-4.74983
-4.75129
-4.75317
-4.75545
-4.7581
-4.7611
-4.76444
-4.76813
-4.77215
-4.77651
-4.78118
-4.78615
-4.7914
-4.7969
-4.80263
-4.80857
-4.81467
-4.82087
-4.82714
-4.88036
-4.8799
-4.87982
-4.88022
-4.88108
-4.88233
-4.88395
-4.88591
-4.88818
-4.89073
-4.89358
-4.89671
-4.90013
-4.90383
-4.90781
-4.91204
-4.91652
-4.92121
-4.92612
-4.9312
-4.93643
-4.94175
-4.94714
-5.01145
-5.01107
-5.01102
-5.01136
-5.01207
-5.01313
-5.01448
-5.01611
-5.01798
-5.02009
-5.02242
-5.025
-5.02783
-5.03092
-5.03425
-5.03779
-5.04154
-5.04549
-5.04961
-5.05389
-5.05831
-5.06281
-5.06737
-5.14232
-5.14204
-5.14203
-5.1423
-5.14287
-5.14372
-5.1448
-5.14609
-5.14757
-5.14922
-5.15103
-5.15304
-5.1553
-5.15782
-5.16054
-5.16345
-5.16652
-5.16975
-5.17314
-5.17668
-5.18033
-5.18405
-5.18781
-5.27299
-5.27285
-5.27287
-5.27307
-5.2735
-5.27414
-5.27496
-5.27591
-5.27699
-5.27817
-5.27946
-5.28089
-5.28259
-5.28457
-5.28674
-5.28904
-5.29148
-5.29405
-5.29675
-5.29957
-5.30249
-5.30547
-5.30848
-5.40349
-5.40352
-5.40357
-5.40371
-5.40401
-5.40445
-5.40501
-5.40563
-5.40631
-5.40701
-5.40772
-5.40845
-5.40962
-5.41117
-5.41285
-5.4146
-5.41645
-5.41841
-5.42047
-5.42262
-5.42486
-5.42713
-5.42942
-5.53384
-5.53404
-5.53416
-5.53427
-5.53448
-5.53476
-5.53507
-5.53536
-5.53563
-5.53581
-5.53578
-5.53544
-5.536
-5.53756
-5.53891
-5.54018
-5.54148
-5.54287
-5.54433
-5.54586
-5.54745
-5.54906
-5.55066
-5.66402
-5.66431
-5.66448
-5.6646
-5.66472
-5.66483
-5.6649
-5.66491
-5.66485
-5.66464
-5.66409
-5.66292
-5.66257
-5.66439
-5.66536
-5.66605
-5.66673
-5.66746
-5.66824
-5.66909
-5.66997
-5.67085
-5.6717
157.272
125.35
106.668
55.8619
108.147
90.7363
114.11
159.783
126.496
145.246
176.814
208.297
48.5275
39.0012
41.6083
57.3746
31.1942
24.7191
22.5223
22.5528
26.6432
25.9241
25.4873
25.2163
26.9525
26.7327
26.8915
27.0173
18.2781
25.0416
26.5601
26.7923
4.44238
13.1467
23.1765
26.5399
-3.24181
-1.13648
6.39242
17.7303
-0.550249
-0.98182
-5.1799
-2.46956
-2.61469
-3.65912
-4.52779
-5.6518
-2.7182
-2.63894
-2.78085
-3.56171
-2.92465
-2.9614
-2.95726
-2.94191
-2.99995
-3.06248
-3.12207
-3.17191
-3.04452
-3.09846
-3.1542
-3.20949
-3.08376
-3.12903
-3.17431
-3.21872
-3.12695
-3.16416
-3.20112
-3.23624
-3.18087
-3.21148
-3.24192
-3.27041
-3.24583
-3.27137
-3.29681
-3.32041
-3.32051
-3.34207
-3.36364
-3.38352
-3.40342
-3.42177
-3.44023
-3.45722
-3.49335
-3.50908
-3.52499
-3.53966
-3.58919
-3.6028
-3.61663
-3.62939
-3.68983
-3.70173
-3.71387
-3.72508
-3.79439
-3.80491
-3.81568
-3.82563
-3.90231
-3.9117
-3.92134
-3.93024
-4.0132
-4.02164
-4.03031
-4.0383
-4.12659
-4.13423
-4.14205
-4.14923
-4.24197
-4.24891
-4.25599
-4.26245
-4.35877
-4.36509
-4.37152
-4.37735
-4.47652
-4.48226
-4.48811
-4.49339
-4.59486
-4.60005
-4.60536
-4.61016
-4.71357
-4.71822
-4.72301
-4.72736
-4.83257
-4.83667
-4.84093
-4.84486
-4.9518
-4.95535
-4.95909
-4.96257
-5.07128
-5.07428
-5.07748
-5.0805
-5.19102
-5.19347
-5.19613
-5.19868
-5.31101
-5.31295
-5.31506
-5.31712
-5.43128
-5.4327
-5.43427
-5.43584
-5.55193
-5.55287
-5.55389
-5.55492
-5.67232
-5.67274
-5.67319
-5.67363
232.144
216.636
173.512
164.718
177.926
212.932
265.958
297.905
302.125
299.401
297.055
282.627
244.8
215.097
203.246
198.018
192.537
184.606
188.186
217.84
172.057
147.868
134.825
152.903
183.909
218.535
260.165
283.438
283.088
271.233
239.989
205.066
195.335
192.867
189.444
179.14
164.286
153.261
204.888
129.007
98.4696
82.0552
93.3739
116.64
153.223
207.815
264.408
262.572
238.071
203.651
182.301
177.371
177.489
173.571
161.698
143.14
135.341
75.1581
52.1586
41.8771
35.5302
43.4985
68.0279
93.5599
150.532
226.255
224.101
187.91
161.994
163.617
159.699
149.78
139.309
129.492
120.742
117.442
24.3452
26.1364
27.3527
31.0627
36.5208
44.059
53.351
101.736
159.171
160.715
136.902
115.19
134.908
134.934
109.818
89.2208
73.6116
92.1862
100.084
25.6606
27.3339
28.1277
28.9037
30.9437
32.0745
38.2846
58.0076
82.4177
102.133
101.812
84.4994
88.6258
92.3086
65.1397
39.1885
30.995
51.6513
78.3287
27.1469
27.4248
27.7661
28.1643
28.8668
29.6708
31.9363
29.3178
46.559
66.5877
81.6492
67.1292
35.4495
35.3513
28.8216
13.738
11.2626
21.0505
46.7473
26.9796
27.2695
27.583
28.0479
28.0533
27.9164
23.726
19.6805
30.562
48.658
57.7035
31.6669
0.309914
-2.35886
7.61107
2.43101
1.45238
3.47267
13.3042
27.0472
27.185
27.5064
27.7374
27.0434
23.5913
20.018
20.6059
25.3553
30.3168
16.9498
2.59441
-6.54029
-12.5617
-0.0421113
-0.734697
-0.699049
-0.767555
2.08478
26.6614
27.196
27.7434
28.0612
26.4694
23.3357
21.1205
20.2027
16.5436
8.20594
-0.346444
-0.609654
-2.74904
-6.01204
-1.61816
0.179662
0.674668
-0.206358
1.3475
11.8624
25.2679
26.6121
26.3187
25.0584
22.0273
18.3432
12.0374
2.26058
-1.8113
-1.32274
-1.08386
-1.68487
-2.91533
-1.28509
0.355564
1.11974
0.517609
1.31264
-6.79975
2.45447
11.0772
16.3866
13.9146
9.75469
4.70634
-1.72766
-1.53534
-1.81584
-1.63475
-1.61048
-1.84054
-2.29546
-1.33191
0.0206081
0.619049
0.43243
0.965183
-4.16164
-3.02138
-4.27437
-2.96697
-3.29307
-3.25622
-1.57938
-1.59323
-2.3632
-2.06139
-1.9697
-1.98126
-2.03962
-1.88522
-1.31484
-0.679685
-0.27377
-0.231188
-0.015865
-3.18616
-4.0896
-4.29965
-3.19513
-3.01658
-3.84637
-3.80159
-2.78851
-2.37622
-2.26524
-2.22461
-2.23879
-2.2028
-2.03654
-1.72505
-1.38863
-1.11353
-1.15357
-1.04583
-3.23772
-3.27134
-3.39698
-3.74316
-3.70689
-3.28247
-2.97216
-2.72563
-2.54028
-2.43371
-2.40787
-2.40763
-2.37058
-2.28067
-2.13609
-1.97595
-1.79042
-1.83233
-1.89684
-3.28903
-3.3283
-3.30468
-3.281
-3.19622
-3.07855
-2.98221
-2.81515
-2.65853
-2.56906
-2.54898
-2.55348
-2.55113
-2.53277
-2.4981
-2.46435
-2.38559
-2.41663
-2.43937
-3.28723
-3.34152
-3.34091
-3.31437
-3.24477
-3.14147
-3.03143
-2.89167
-2.77115
-2.70329
-2.68935
-2.70727
-2.73668
-2.7676
-2.79921
-2.84809
-2.90346
-2.88148
-2.71101
-3.28803
-3.33025
-3.34104
-3.32227
-3.26696
-3.18054
-3.08289
-2.97845
-2.89315
-2.84536
-2.83829
-2.86377
-2.909
-2.96492
-3.02842
-3.11284
-3.24596
-3.21136
-2.93972
-3.31093
-3.34465
-3.3533
-3.33738
-3.29471
-3.22968
-3.15548
-3.08084
-3.02161
-2.98919
-2.98703
-3.01288
-3.05987
-3.11978
-3.18885
-3.27157
-3.38845
-3.38531
-3.22424
-3.35325
-3.38095
-3.38868
-3.37676
-3.34542
-3.29856
-3.24478
-3.19192
-3.15012
-3.12783
-3.12761
-3.14897
-3.1885
-3.23975
-3.29762
-3.3591
-3.42236
-3.42714
-3.4009
-3.41079
-3.43427
-3.44234
-3.43506
-3.41331
-3.38034
-3.34203
-3.30455
-3.27465
-3.25806
-3.25708
-3.27168
-3.29985
-3.33698
-3.37815
-3.41846
-3.44649
-3.45173
-3.49494
-3.48035
-3.50073
-3.50934
-3.50616
-3.49195
-3.46939
-3.44242
-3.4156
-3.39346
-3.37967
-3.3762
-3.38328
-3.39951
-3.42175
-3.44681
-3.47215
-3.48874
-3.47787
-3.59639
-3.5596
-3.57762
-3.58667
-3.58671
-3.57835
-3.56313
-3.54413
-3.52441
-3.50693
-3.49409
-3.48733
-3.48702
-3.49219
-3.50067
-3.51099
-3.52293
-3.52997
-3.50629
-3.63013
-3.64675
-3.66288
-3.67211
-3.67439
-3.67003
-3.66013
-3.6466
-3.63144
-3.61657
-3.60354
-3.59337
-3.58639
-3.58186
-3.57816
-3.57453
-3.57204
-3.56928
-3.54604
-3.55902
-3.74033
-3.75487
-3.764
-3.76769
-3.76601
-3.75967
-3.74977
-3.73751
-3.72403
-3.71031
-3.69706
-3.6845
-3.67195
-3.65793
-3.64163
-3.62378
-3.60369
-3.56122
-3.5134
-3.83917
-3.8523
-3.86108
-3.86548
-3.86546
-3.86139
-3.85384
-3.84342
-3.83072
-3.81633
-3.80071
-3.78395
-3.76541
-3.74359
-3.7171
-3.68545
-3.64551
-3.582
-3.50355
-3.94235
-3.9542
-3.96246
-3.96705
-3.9679
-3.96516
-3.95906
-3.94983
-3.93771
-3.92302
-3.90601
-3.88667
-3.86446
-3.83802
-3.80539
-3.76412
-3.70879
-3.63499
-3.51778
-4.04915
-4.05985
-4.06744
-4.07188
-4.07304
-4.07098
-4.06573
-4.0573
-4.04575
-4.03126
-4.01396
-3.99378
-3.97034
-3.94265
-3.90863
-3.86471
-3.80661
-3.7438
-3.53826
-4.15896
-4.16858
-4.17549
-4.17956
-4.18069
-4.17888
-4.1741
-4.16624
-4.15531
-4.14147
-4.12485
-4.10541
-4.08296
-4.05702
-4.02599
-3.98678
-3.93873
-3.904
-3.69601
-4.27116
-4.27981
-4.28603
-4.28967
-4.29059
-4.28882
-4.28429
-4.2769
-4.26665
-4.25377
-4.23849
-4.22089
-4.20107
-4.17902
-4.15386
-4.12388
-4.09049
-4.07709
-3.92915
-4.38517
-4.39294
-4.39855
-4.40175
-4.40243
-4.40062
-4.39629
-4.38937
-4.37989
-4.36815
-4.35454
-4.33934
-4.32294
-4.30579
-4.28773
-4.26769
-4.24781
-4.24598
-4.13313
-4.50044
-4.50745
-4.51252
-4.51537
-4.51585
-4.51402
-4.50991
-4.50351
-4.49487
-4.48436
-4.47248
-4.45977
-4.44687
-4.43452
-4.42294
-4.41182
-4.40293
-4.40865
-4.3115
-4.61654
-4.6229
-4.62753
-4.63011
-4.63049
-4.6287
-4.62487
-4.61901
-4.61123
-4.6019
-4.59164
-4.58118
-4.57134
-4.56304
-4.55678
-4.55264
-4.55222
-4.56406
-4.47276
-4.73315
-4.73894
-4.74322
-4.74565
-4.74603
-4.7444
-4.74088
-4.73556
-4.72856
-4.72024
-4.71128
-4.70257
-4.69509
-4.68976
-4.68717
-4.68775
-4.69341
-4.71012
-4.61556
-4.85009
-4.85534
-4.85933
-4.8617
-4.86221
-4.86087
-4.85775
-4.85296
-4.84659
-4.83899
-4.83088
-4.82328
-4.81734
-4.81385
-4.81313
-4.81611
-4.82536
-4.84463
-4.75231
-4.96725
-4.97199
-4.97569
-4.97806
-4.97881
-4.97789
-4.97532
-4.97109
-4.96526
-4.95809
-4.95051
-4.94364
-4.93834
-4.93533
-4.93473
-4.9378
-4.94749
-4.95991
-4.89268
-5.08462
-5.08882
-5.09222
-5.09457
-5.09562
-5.09526
-5.09342
-5.08985
-5.08456
-5.07792
-5.07077
-5.06422
-5.05885
-5.05518
-5.05315
-5.05481
-5.06076
-5.05106
-4.98865
-5.20221
-5.20584
-5.20888
-5.21115
-5.21247
-5.21276
-5.21184
-5.209
-5.20417
-5.19824
-5.19149
-5.18472
-5.17893
-5.17438
-5.17214
-5.17238
-5.17291
-5.14117
-5.05108
-5.32003
-5.32306
-5.32566
-5.32774
-5.32922
-5.33016
-5.33042
-5.32841
-5.32375
-5.31804
-5.3117
-5.30479
-5.29801
-5.29225
-5.29096
-5.29322
-5.2917
-5.25107
-5.1605
-5.43812
-5.44048
-5.44253
-5.44426
-5.44572
-5.44735
-5.44949
-5.44912
-5.44402
-5.43802
-5.43161
-5.4243
-5.41574
-5.40681
-5.40482
-5.41031
-5.41582
-5.37818
-5.30092
-5.55642
-5.55798
-5.55931
-5.56046
-5.56177
-5.56464
-5.57133
-5.57438
-5.56739
-5.56029
-5.5531
-5.54421
-5.53164
-5.51451
-5.512
-5.52574
-5.55923
-5.5769
-5.61619
-5.67428
-5.67484
-5.67519
-5.6755
-5.67643
-5.68095
-5.69837
-5.6975
-5.68805
-5.68112
-5.67481
-5.66659
-5.65262
-5.62715
-5.61852
-5.65407
-5.73083
-5.90858
-6.16091
)
;

boundaryField
{
    leftWall
    {
        type            calculated;
        value           nonuniform List<scalar> 
50
(
779.773
722.107
662.871
602.462
541.344
479.629
417.301
354.439
255.41
118.668
23.8643
-0.115682
-0.507936
-0.664189
-0.80054
-0.946093
-1.09206
-1.23723
-1.38351
-1.53064
-1.67803
-1.82546
-1.97274
-2.11965
-2.26602
-2.41167
-2.55647
-2.70035
-2.84327
-2.9852
-3.12613
-3.26605
-3.40497
-3.5429
-3.67987
-3.81594
-3.95118
-4.08564
-4.2194
-4.35254
-4.48514
-4.61726
-4.74898
-4.88036
-5.01145
-5.14232
-5.27299
-5.40349
-5.53384
-5.66402
)
;
    }
    rightWall
    {
        type            calculated;
        value           nonuniform List<scalar> 
50
(
628.264
571.845
515.991
464.433
414.117
362.727
307.745
247.082
188.186
153.261
135.341
117.442
100.084
78.3287
46.7473
13.3042
2.08478
1.3475
1.31264
0.965183
-0.015865
-1.04583
-1.89684
-2.43937
-2.71101
-2.93972
-3.22424
-3.4009
-3.49494
-3.59639
-3.63013
-3.55902
-3.5134
-3.50355
-3.51778
-3.53826
-3.69601
-3.92915
-4.13313
-4.3115
-4.47276
-4.61556
-4.75231
-4.89268
-4.98865
-5.05108
-5.1605
-5.30092
-5.61619
-6.16091
)
;
    }
    lowerWall
    {
        type            calculated;
        value           nonuniform List<scalar> 
62
(
809.202
803.007
796.756
791.253
787.216
784.65
783.607
784.158
786.383
790.33
796.017
803.433
812.541
823.256
835.34
848.449
861.731
873.268
883.261
889.569
890.029
885.337
875.772
846.352
785.143
722.953
659.689
595.582
531.004
464.74
387.443
214.333
182.742
165.183
117.233
1121.96
1097.65
1078.91
1022.83
919.99
779.752
620.977
462.546
1135.1
1102.19
978.948
820.015
714.699
659.768
627.62
612.134
613.778
634.812
668.3
694.417
697.187
691.988
691.721
692.281
683.777
661.876
656.119
)
;
    }
    atmosphere
    {
        type            calculated;
        value           nonuniform List<scalar> 
46
(
-5.72904
-5.72904
-5.72904
-5.72904
-5.72904
-5.72904
-5.72904
-5.72904
-5.72904
-5.72904
-5.72904
-5.72904
-5.72904
-5.72907
-5.72916
-5.72931
-5.72954
-5.72985
-5.73022
-5.73065
-5.73111
-5.73157
-5.73199
-5.73225
-5.7324
-5.73255
-5.73268
-5.73285
-5.73274
-5.73227
-5.73153
-5.73066
-5.72982
-5.72917
-5.72904
-5.72904
-5.72904
-5.72904
-5.72904
-5.72905
-5.72905
-5.72909
-5.73395
-5.75612
-5.79107
-6.69574
)
;
    }
    defaultFaces
    {
        type            empty;
    }
}


// ************************************************************************* //
