/*--------------------------------*- C++ -*----------------------------------*\
| =========                 |                                                 |
| \\      /  F ield         | OpenFOAM: The Open Source CFD Toolbox           |
|  \\    /   O peration     | Version:  v2012                                 |
|   \\  /    A nd           | Website:  www.openfoam.com                      |
|    \\/     M anipulation  |                                                 |
\*---------------------------------------------------------------------------*/
FoamFile
{
    version     2.0;
    format      ascii;
    class       volScalarField;
    location    "0.85";
    object      p_rgh;
}
// * * * * * * * * * * * * * * * * * * * * * * * * * * * * * * * * * * * * * //

dimensions      [1 -1 -2 0 0 0 0];


internalField   nonuniform List<scalar> 
2268
(
809.202
803.007
796.756
791.253
787.216
784.65
783.607
784.158
786.383
790.33
796.017
803.433
812.541
823.256
835.34
848.449
861.731
873.268
883.261
889.569
890.029
885.337
875.772
810.395
803.492
796.97
791.618
787.747
785.222
784.12
784.554
786.629
790.409
795.922
803.166
812.096
822.618
834.483
847.308
860.507
872.781
881.289
886.241
886.512
881.828
873.402
810.018
803.062
796.85
791.816
788.084
785.573
784.412
784.743
786.685
790.307
795.64
802.69
811.416
821.708
833.328
845.87
858.755
871.158
881.382
887.167
886.627
879.792
870.05
808.468
801.793
796.152
791.447
787.816
785.299
784.086
784.341
786.19
789.699
794.901
801.805
810.385
820.536
832.034
844.482
857.301
869.643
879.897
885.833
885.034
876.593
865.628
806.208
799.928
794.851
790.411
786.849
784.32
783.072
783.29
785.099
788.551
793.671
800.484
808.985
819.098
830.612
843.159
856.19
868.878
879.622
886.003
884.89
874.171
860.363
803.352
797.566
792.985
788.728
785.199
782.653
781.395
781.623
783.446
786.89
791.966
798.727
807.207
817.366
829.007
841.804
855.265
868.609
880.158
887.194
885.966
873.148
854.641
799.883
794.725
790.572
786.411
782.877
780.32
779.084
779.372
781.268
784.75
789.811
796.546
805.045
815.319
827.178
840.344
854.4
868.623
881.177
888.945
887.399
871.747
847.274
795.88
791.408
787.58
783.447
779.887
777.342
776.177
776.591
778.63
782.2
787.263
793.979
802.521
812.973
825.135
838.77
853.524
868.729
882.355
890.757
887.651
864.8
828.766
1135.1
1102.19
978.948
820.015
714.699
659.768
627.62
612.134
613.778
634.812
668.3
694.417
697.187
691.988
691.721
692.281
683.777
661.876
656.119
1158.85
1110.73
961.355
788.734
692.162
647.992
621.602
604.091
600.279
616.344
649.122
680.725
688.655
683.895
678.482
675.177
666.514
649.205
656.736
1223.43
1090.1
906.711
744.291
669.926
639.748
616.1
595.842
586.238
596.61
627.199
665.063
677.428
672.571
668.571
666.079
653.649
645.498
655.745
1228.18
1033.95
833.136
694.712
645.043
627.943
601.946
575.098
560.73
577.173
610.56
654.988
669.825
662.024
654.173
650.97
654.08
644.641
648.739
1183.95
956.503
754.834
643.159
614.357
561.403
477.948
424.586
404.681
455.278
561.249
656.726
666.27
651.239
638.232
630.269
634.643
658.271
651.393
1102.26
870.349
679.452
563.481
522.546
446.754
376.548
370.851
362.687
359.318
378.925
560.397
656.639
636.188
615.235
593.828
595
644.499
666.684
1001.99
787.768
522.831
346.003
433.333
444.685
369.708
373.326
363.339
359.539
377.848
411.418
456.97
467.152
452.379
385.818
380.217
574.681
666.696
901.638
733.518
298.934
273.132
362.686
531.205
525.433
373.548
363.53
357.974
411.875
526.133
350.76
264.121
249.779
227.498
225.914
340.189
646.422
788.877
785.278
781.544
777.322
773.729
771.325
770.441
771.247
773.7
777.525
782.595
789.26
797.892
808.76
821.535
836.073
852.113
869.258
885.345
895.794
890.26
850.988
746.851
760.683
745.132
728.172
715.091
709.161
710.252
716.959
729.699
747.81
764.734
772.913
779.526
785.742
798.168
813.54
829.584
847.731
869.282
891.621
910.608
917.14
880.835
724.636
315.831
282.244
249.196
225.184
213.74
212.714
219.621
231.557
245.923
262.512
289.248
329.897
386.623
446.988
509.553
572.048
626.312
683.644
759.42
825.5
894.75
917.659
877.77
2.96744
2.11095
1.98902
1.64266
1.30161
1.03939
0.8571
0.741414
0.679315
0.653276
0.640088
0.634693
0.661734
0.772124
0.852988
2.80471
31.1822
105.504
172.055
236.906
418.759
811.503
938.909
0.780186
0.640074
0.630354
0.584254
0.54569
0.524604
0.519098
0.525408
0.540625
0.562627
0.590026
0.623399
0.663188
0.710249
0.771065
0.936343
1.24574
2.53341
7.15474
20.9304
110.048
602.3
674.098
0.524996
0.504461
0.509549
0.504955
0.502676
0.504412
0.511005
0.52275
0.539611
0.561296
0.587838
0.620655
0.66252
0.717689
0.792353
0.888975
1.01822
1.36023
2.75989
8.04052
94.3214
400.037
365.815
0.487319
0.488043
0.494922
0.496977
0.498366
0.501098
0.506994
0.517126
0.531866
0.551108
0.574898
0.604384
0.641928
0.690305
0.752609
0.832183
0.927182
1.05199
1.51963
3.06631
17.311
230.188
392.241
0.464064
0.466751
0.471686
0.475288
0.47862
0.482972
0.489635
0.499448
0.51271
0.529361
0.549401
0.5734
0.602371
0.636538
0.673926
0.710415
0.73903
0.752975
0.854557
1.41217
4.4992
96.4534
401.382
0.442998
0.446135
0.449925
0.453406
0.45701
0.461509
0.467734
0.476252
0.487171
0.500197
0.514985
0.531454
0.549445
0.567391
0.580504
0.579663
0.550917
0.482313
0.413649
0.561626
1.79292
35.2645
338.321
0.422988
0.426337
0.429522
0.432339
0.435157
0.438593
0.443269
0.449556
0.457356
0.466081
0.474935
0.483201
0.489915
0.492614
0.485676
0.459356
0.400025
0.293675
0.148089
0.0413013
0.1547
2.4321
140.517
0.401902
0.404985
0.407612
0.409721
0.411583
0.413705
0.416568
0.420393
0.424912
0.429318
0.43247
0.433154
0.429909
0.420026
0.39829
0.356328
0.283467
0.169141
0.0102576
-0.167778
-0.298257
-0.397498
0.282936
0.379969
0.382567
0.384625
0.386012
0.386886
0.387657
0.388694
0.390104
0.391512
0.391985
0.390189
0.384634
0.373599
0.354482
0.32296
0.272614
0.195762
0.0859913
-0.0587494
-0.230516
-0.399157
-0.494049
-0.470304
0.357768
0.359846
0.361349
0.362021
0.361923
0.361379
0.360671
0.359836
0.358455
0.355562
0.349771
0.339508
0.323003
0.29789
0.260738
0.206965
0.131326
0.0296608
-0.0982012
-0.247461
-0.406112
-0.550634
-0.667139
0.335534
0.337121
0.338121
0.338152
0.337187
0.335465
0.333201
0.330392
0.326627
0.320982
0.31213
0.298561
0.278609
0.250199
0.210619
0.156668
0.0849882
-0.00723027
-0.120267
-0.250243
-0.390566
-0.532199
-0.669873
0.313453
0.314621
0.315203
0.31471
0.313038
0.31034
0.306769
0.302314
0.296606
0.288802
0.277703
0.261957
0.240118
0.210438
0.170757
0.118766
0.0524306
-0.029866
-0.128619
-0.241644
-0.364202
-0.490806
-0.617758
0.291731
0.292579
0.292854
0.29198
0.289782
0.286328
0.281722
0.275961
0.268739
0.259328
0.246673
0.229609
0.206962
0.177365
0.139114
0.0904632
0.030121
-0.0426075
-0.127879
-0.224601
-0.329856
-0.43963
-0.550394
0.27056
0.2712
0.271288
0.270188
0.267651
0.26367
0.258296
0.251551
0.24321
0.23268
0.21905
0.201324
0.178581
0.149844
0.113851
0.06927
0.0151755
-0.0486738
-0.121996
-0.203938
-0.292613
-0.385066
-0.47792
0.250108
0.25064
0.250648
0.249458
0.246767
0.242484
0.236611
0.229183
0.220077
0.208847
0.194731
0.176872
0.154536
0.127065
0.0936324
0.0532851
0.00532969
-0.0503349
-0.113236
-0.182482
-0.256568
-0.333084
-0.408949
0.230497
0.230994
0.231004
0.22983
0.227143
0.222772
0.216663
0.208845
0.199286
0.187706
0.173509
0.155959
0.134438
0.108487
0.0776437
0.041321
-0.000949051
-0.0492165
-0.103019
-0.161491
-0.22331
-0.286421
-0.348167
0.211809
0.212318
0.212372
0.211281
0.20871
0.204434
0.198332
0.190404
0.18068
0.169034
0.155059
0.138156
0.117786
0.0935809
0.0652955
0.03266
-0.00456362
-0.0463563
-0.0923171
-0.141692
-0.193339
-0.245517
-0.29605
0.194086
0.19463
0.194735
0.19375
0.19136
0.187314
0.181424
0.173643
0.164015
0.152535
0.138984
0.122935
0.103931
0.0816479
0.0559248
0.0266801
-0.00612698
-0.0423861
-0.0817289
-0.123519
-0.166805
-0.21015
-0.251838
0.177348
0.177934
0.178076
0.177185
0.174991
0.171251
0.165725
0.158309
0.149018
0.137908
0.12492
0.109813
0.0922445
0.0719323
0.0487406
0.022657
-0.00624759
-0.0377857
-0.0715987
-0.107137
-0.143612
-0.179859
-0.214561
0.161614
0.162235
0.162392
0.16156
0.159542
0.15612
0.151046
0.144153
0.135406
0.124865
0.112565
0.0984267
0.0822546
0.063835
0.0430475
0.0198908
-0.00553184
-0.0330023
-0.062174
-0.0925654
-0.123518
-0.154087
-0.183276
0.14689
0.147534
0.147682
0.146874
0.144987
0.141853
0.137245
0.130959
0.122904
0.113108
0.101634
0.0885046
0.0736588
0.0569834
0.0383941
0.0178896
-0.00443449
-0.0283741
-0.0536159
-0.079743
-0.106203
-0.132225
-0.15706
0.133169
0.133829
0.133951
0.133139
0.131333
0.128431
0.124249
0.118573
0.11128
0.102344
0.0918153
0.07976
0.066206
0.0511354
0.0345211
0.0163753
-0.00321917
-0.0240916
-0.0459797
-0.068537
-0.091306
-0.113654
-0.135014
0.120434
0.121101
0.121193
0.120359
0.118598
0.115869
0.112037
0.106914
0.100368
0.0923307
0.0828151
0.0718867
0.0596157
0.0460492
0.0312165
0.015156
-0.00205361
-0.0202723
-0.0392916
-0.0588363
-0.0785377
-0.0978791
-0.116429
0.108653
0.109318
0.109383
0.108528
0.106791
0.10419
0.100632
0.0959778
0.090103
0.0829206
0.0744106
0.064614
0.0536057
0.0414619
0.028251
0.0140387
-0.00109223
-0.0170241
-0.0335945
-0.0505924
-0.0677297
-0.0845901
-0.100843
0.0977756
0.0984345
0.0984801
0.0976179
0.0959082
0.0934094
0.0900668
0.0857948
0.0804896
0.0740666
0.0664875
0.0577668
0.0479632
0.0371552
0.0254269
0.0128607
-0.000456248
-0.0144214
-0.0289071
-0.0437545
-0.058744
-0.0735461
-0.0879101
0.0877388
0.0883894
0.0884259
0.0875795
0.0859156
0.0835132
0.0803552
0.0763972
0.0715648
0.0657906
0.059033
0.051289
0.0425955
0.0330182
0.0226388
0.0115418
-0.00018714
-0.0124572
-0.0251656
-0.0381923
-0.0513733
-0.0644534
-0.077246
0.0784721
0.0791114
0.0791511
0.0783419
0.0767493
0.0744551
0.0714745
0.0677904
0.0633599
0.0581386
0.0520923
0.0452107
0.0375134
0.0290485
0.0198847
0.0100979
-0.000234149
-0.0110321
-0.022212
-0.0336839
-0.0453253
-0.0569387
-0.0683897
0.0699019
0.070526
0.0705791
0.0698238
0.0683263
0.0661628
0.0633683
0.0599442
0.0558753
0.0511394
0.0457142
0.0395896
0.0327755
0.0253046
0.0172296
0.00861244
-0.000481667
-0.00998646
-0.0198346
-0.0299573
-0.0402617
-0.0505936
-0.0608597
0.0619535
0.0625598
0.0626291
0.0619403
0.0605556
0.0585465
0.0559546
0.0527947
0.0490726
0.0447831
0.039916
0.0344658
0.0284382
0.0218559
0.014757
0.00718837
-0.000799525
-0.00915463
-0.0178226
-0.0267492
-0.0358627
-0.0450416
-0.0542239
0.0545516
0.0551373
0.0552201
0.0546047
0.0533445
0.051509
0.0491378
0.0462562
0.0428824
0.0390226
0.0346762
0.0298431
0.0245285
0.0187487
0.0125309
0.0059083
-0.00108286
-0.00840231
-0.0160056
-0.0238502
-0.0318802
-0.0399972
-0.0481616
0.0476239
0.0481821
0.0482732
0.0477316
0.0466034
0.0449538
0.0428201
0.0402333
0.0372172
0.0337844
0.0299408
0.02569
0.0210371
0.0159942
0.0105809
0.00481968
-0.00126424
-0.00763904
-0.0142694
-0.0211223
-0.0281529
-0.0352782
-0.0424734
0.0411011
0.0416196
0.0417111
0.0412398
0.0402473
0.0387914
0.0369086
0.0346315
0.0319848
0.0289843
0.0256387
0.0219522
0.0179273
0.0135727
0.00890328
0.0039346
-0.00131458
-0.00681973
-0.0125535
-0.0184899
-0.0245913
-0.0307855
-0.0370554
0.0349179
0.0353804
0.0354592
0.0350544
0.0341993
0.0329427
0.0313211
0.0293654
0.0270998
0.0245408
0.0216966
0.0185672
0.0151477
0.0114424
0.00746653
0.00323379
-0.00124078
-0.00593892
-0.0108399
-0.0159232
-0.0211567
-0.026476
-0.0318657
0.0290157
0.0294007
0.0294507
0.0291114
0.0283956
0.0273432
0.0259896
0.0243638
0.0224896
0.0203825
0.018047
0.0154743
0.0126427
0.00955066
0.006223
0.00267724
-0.00107402
-0.00501791
-0.00913983
-0.0134243
-0.0178437
-0.0223398
-0.0268954
0.023346
0.023625
0.0236357
0.0233644
0.0227907
0.0219453
0.0208625
0.0195716
0.0180961
0.0164495
0.0146314
0.0126206
0.0103622
0.00784535
0.00512231
0.00221916
-0.000854012
-0.00408987
-0.00747964
-0.0110121
-0.0146633
-0.0183815
-0.0221468
0.0178729
0.018011
0.0179852
0.0177867
0.0173556
0.0167152
0.0159016
0.0149459
0.013871
0.0126891
0.0114002
0.00997221
0.00827221
0.00628518
0.00412135
0.00181849
-0.000619232
-0.0031906
-0.00589131
-0.00871297
-0.0116351
-0.0146133
-0.0176253
0.0125684
0.0125368
0.01248
0.0123478
0.0120463
0.0115987
0.0110464
0.0104214
0.00974674
0.00904155
0.00833556
0.00760468
0.00643631
0.00488052
0.00320281
0.00145015
-0.000399495
-0.00235435
-0.00441274
-0.00656777
-0.00880199
-0.011078
-0.0133658
0.00740748
0.00720544
0.00708872
0.00697792
0.00676585
0.00648555
0.00618115
0.00588389
0.00562067
0.00543791
0.00546882
0.00580576
0.00525059
0.00369039
0.00233417
0.00107109
-0.000235378
-0.00161766
-0.00307822
-0.00461106
-0.00619907
-0.00780851
-0.00941164
0.0024197
0.00213665
0.00196342
0.00184439
0.00171957
0.0016106
0.00154073
0.00152849
0.00159751
0.00180622
0.00235187
0.0035184
0.00387623
0.00205329
0.00108373
0.000395441
-0.000283815
-0.00101289
-0.00180189
-0.00264458
-0.00352248
-0.00440466
-0.00525612
643.558
614.455
605.347
578.876
660.553
645.969
750.589
805.627
865.888
771.575
825.783
975.28
744.311
678.894
726.402
817.4
74.7834
26.5312
55.4912
121.753
28.6745
27.3538
26.87
26.599
43.2824
28.7779
28.4441
28.5487
274.42
75.465
28.7341
28.5128
397.733
406.437
93.0904
28.9208
422.125
419.711
416.151
193.248
163.412
402.468
398.369
374.927
-0.573273
-1.58978
38.2371
236.312
-0.689017
-0.603575
-0.892724
-1.87617
-0.762897
-0.800358
-0.796113
-0.780932
-0.713719
-0.776206
-0.835184
-0.885687
-0.63313
-0.687064
-0.74278
-0.798029
-0.547184
-0.592452
-0.637735
-0.682138
-0.465178
-0.502382
-0.539345
-0.574469
-0.393897
-0.424514
-0.454949
-0.483439
-0.33367
-0.359206
-0.384648
-0.408245
-0.283152
-0.304716
-0.326283
-0.346162
-0.240867
-0.259219
-0.277675
-0.294664
-0.205603
-0.221335
-0.237244
-0.251913
-0.176249
-0.189862
-0.203685
-0.21645
-0.151691
-0.163599
-0.175734
-0.186945
-0.131055
-0.141581
-0.152348
-0.162298
-0.113786
-0.123176
-0.132812
-0.141713
-0.0994769
-0.107917
-0.116586
-0.124577
-0.0876778
-0.0953131
-0.103138
-0.110317
-0.0778577
-0.0847986
-0.0918799
-0.098339
-0.0694658
-0.0757879
-0.0822149
-0.0880435
-0.0620184
-0.0677666
-0.0736102
-0.0788922
-0.0551633
-0.0603589
-0.0656641
-0.0704645
-0.0486874
-0.0533356
-0.0581218
-0.0624779
-0.0424867
-0.0465853
-0.050853
-0.0547764
-0.036528
-0.0400743
-0.043814
-0.0472969
-0.0308125
-0.0338093
-0.0370096
-0.0400348
-0.0253509
-0.0278097
-0.0304652
-0.0330159
-0.0201492
-0.0220865
-0.0241979
-0.0262608
-0.0152244
-0.0166477
-0.0182164
-0.0197843
-0.0106814
-0.0116207
-0.0126432
-0.0136688
-0.00587435
-0.00629935
-0.00674297
-0.00718508
761.455
627.266
280.674
271.88
290.83
563.877
637.821
554.337
360.053
357.63
480.299
595.131
350.483
243.452
231.602
226.37
221.011
216.272
394.02
865.509
584.081
322.796
393.664
603.035
643.042
677.667
719.298
449.641
360.882
493.23
627.819
402.349
230.382
227.874
224.523
223.867
202.767
193.858
971.904
800.412
743.798
704.272
660.497
437.626
575.597
751.104
692.724
385.924
661.247
667.417
281.162
219.085
219.235
250.211
241.224
203.315
183.546
870.734
776.265
513.119
124.601
57.1303
89.4909
301.018
749.2
818.709
508.244
772.045
707.871
222.978
208.143
224.012
232.49
223.118
217.927
189.168
160.361
80.274
30.2234
35.5439
42.1675
60.201
430.228
779.65
828.863
816.639
801.484
779.199
304.283
193.763
171.62
195.164
172.557
207.145
215.043
27.0424
28.7166
29.5517
30.8221
35.2025
162.685
729.814
808.765
828.319
846.507
846.842
828.782
553.049
157.698
131.573
126.697
36.1083
112.234
207.431
28.6788
28.985
29.475
30.4333
34.0055
182.751
764.371
857.951
593.438
541.256
908.869
887.032
648.76
109.765
105.307
78.2513
15.2305
28.6384
187.377
28.6919
29.0666
29.5589
30.6947
47.1168
223.683
268.508
143.588
101.406
533.662
963.884
377.459
325.467
81.2786
113.765
69.8283
5.03404
9.23635
97.8641
28.9896
29.349
29.9825
50.4982
82.323
73.3609
31.3033
33.8549
96.8474
664.741
388.358
8.68366
44.9275
103.019
116.057
75.7202
2.59187
2.26316
4.76989
29.5691
29.9401
31.7722
51.6653
56.5138
35.5413
33.3259
32.408
259.929
631.461
5.82693
5.29519
12.2984
118.847
123.697
50.1087
2.73944
1.69809
3.39446
275.094
32.957
34.176
38.8276
38.7064
35.5957
31.7018
98.637
312.751
41.2149
1.93872
4.02694
23.3367
53.6692
64.9412
5.07626
3.04352
2.48372
3.35647
319.348
341.329
242.779
116.113
180.016
211.688
234.12
273.836
202.249
0.325251
1.39979
6.51407
11.8598
2.08654
1.14607
1.97428
2.60425
2.62836
8.35662
36.5475
368.627
393.098
394.405
394.079
393.417
368.323
216.33
-0.315621
0.102813
1.60301
5.09567
1.6217
0.186901
0.7704
1.37439
1.81311
3.64768
39.6848
-1.02675
-1.93234
29.5578
154.374
162.252
38.5841
-1.64002
-0.626933
-0.213955
0.0597246
1.48144
1.21803
-0.0373836
0.13297
0.445561
0.781172
1.0667
4.6858
50.855
-0.951505
-0.985131
-1.11077
-1.45685
-1.4203
-0.995699
-0.685585
-0.43692
-0.247723
0.0913691
0.254283
-0.118346
-0.0825619
0.0121172
0.157028
0.312067
0.502021
7.71613
53.0108
-0.87756
-0.916899
-0.891383
-0.865731
-0.781578
-0.666625
-0.570713
-0.3834
-0.200658
-0.102701
-0.122104
-0.141658
-0.13864
-0.11242
-0.0784478
-0.0529666
0.0256571
13.2853
55.475
-0.750627
-0.804925
-0.804329
-0.776688
-0.705613
-0.603879
-0.494843
-0.343285
-0.187897
-0.137747
-0.152315
-0.170453
-0.199852
-0.228464
-0.259145
-0.311511
-0.36691
16.2587
58.0872
-0.626255
-0.668475
-0.679265
-0.660491
-0.605186
-0.518765
-0.421108
-0.316675
-0.199502
-0.145575
-0.176003
-0.201767
-0.247001
-0.302863
-0.366606
-0.451031
-0.584196
8.49533
60.6585
-0.523963
-0.557681
-0.56633
-0.550413
-0.507737
-0.442712
-0.368506
-0.293869
-0.234643
-0.162416
-0.186487
-0.225672
-0.27267
-0.332487
-0.40176
-0.484511
-0.601479
1.18592
62.9936
-0.441087
-0.468787
-0.476521
-0.4646
-0.433258
-0.3864
-0.332616
-0.279757
-0.237955
-0.202745
-0.201298
-0.229781
-0.276172
-0.327456
-0.385327
-0.446787
-0.510201
-0.342869
64.676
-0.373433
-0.396911
-0.404987
-0.397699
-0.375953
-0.342987
-0.304674
-0.26719
-0.237295
-0.220699
-0.210271
-0.225078
-0.260746
-0.299481
-0.340653
-0.380925
-0.409115
-0.414361
60.519
-0.317797
-0.338177
-0.34679
-0.343607
-0.329395
-0.306838
-0.279863
-0.253034
-0.230703
-0.216756
-0.213259
-0.218226
-0.235098
-0.258959
-0.284059
-0.309401
-0.326163
-0.315311
14.451
-0.271848
-0.289875
-0.29892
-0.29896
-0.290603
-0.275384
-0.256381
-0.236626
-0.218772
-0.205929
-0.199374
-0.199246
-0.204188
-0.212754
-0.223022
-0.234985
-0.242197
-0.218537
0.953594
-0.233805
-0.249941
-0.259172
-0.261452
-0.257086
-0.247185
-0.233655
-0.218499
-0.203451
-0.190163
-0.180185
-0.17343
-0.16891
-0.165218
-0.16142
-0.158974
-0.156324
-0.133092
-0.146078
-0.202196
-0.216732
-0.225867
-0.22955
-0.227876
-0.221534
-0.211638
-0.199377
-0.18589
-0.172101
-0.158861
-0.146345
-0.133811
-0.119788
-0.103439
-0.0856098
-0.0655464
-0.0230807
0.0247449
-0.175837
-0.188967
-0.197754
-0.202154
-0.202132
-0.198059
-0.190508
-0.180087
-0.167389
-0.153002
-0.137379
-0.120615
-0.102075
-0.0802461
-0.0537671
-0.0221166
0.0178318
0.0813393
0.159782
-0.153822
-0.16568
-0.173931
-0.178528
-0.179372
-0.176632
-0.170536
-0.161307
-0.149187
-0.134494
-0.117482
-0.0981403
-0.0759315
-0.0494917
-0.016852
0.0244118
0.0797438
0.153547
0.270228
-0.135435
-0.146127
-0.153726
-0.158165
-0.159323
-0.15726
-0.152012
-0.143583
-0.132032
-0.117538
-0.10024
-0.0800594
-0.0566131
-0.0289262
0.00509256
0.0490133
0.107204
0.169925
1.69833
-0.120048
-0.129668
-0.136572
-0.140649
-0.141775
-0.139968
-0.13518
-0.127313
-0.116367
-0.102535
-0.085933
-0.0664894
-0.0440403
-0.0181077
0.0129249
0.0522247
0.100707
0.134929
15.1052
-0.107056
-0.115699
-0.121924
-0.125559
-0.126483
-0.124708
-0.12018
-0.112769
-0.102514
-0.0896346
-0.0743683
-0.0567818
-0.0369549
-0.0149105
0.0102552
0.0406015
0.0741854
0.0870643
19.7926
-0.095866
-0.103638
-0.109243
-0.112448
-0.113129
-0.111314
-0.106988
-0.100063
-0.090579
-0.078821
-0.0651828
-0.0500053
-0.033628
-0.0164858
0.00157171
0.0221017
0.0420684
0.0433819
20.3541
-0.0859413
-0.0929553
-0.0980251
-0.10087
-0.101352
-0.0995211
-0.0953813
-0.0890007
-0.0803642
-0.0698066
-0.0579193
-0.0452128
-0.0323505
-0.0200169
-0.00834083
0.0032053
0.0120696
0.00593254
20.7417
-0.0768456
-0.0832062
-0.0878371
-0.090422
-0.0907951
-0.0890124
-0.0850255
-0.0789856
-0.0713066
-0.0621154
-0.0519069
-0.041442
-0.0316246
-0.0233402
-0.0170827
-0.0125798
-0.0123103
-0.0242507
20.9745
-0.0682651
-0.0740513
-0.0783298
-0.0807608
-0.0811441
-0.0795124
-0.0758856
-0.0698305
-0.063009
-0.0553004
-0.0463845
-0.0376753
-0.030201
-0.0248726
-0.0222488
-0.0228586
-0.0285158
-0.0451278
21.2833
-0.0600068
-0.0652632
-0.0692471
-0.0716164
-0.0721335
-0.0707842
-0.0676319
-0.0620137
-0.0561488
-0.0489037
-0.0407938
-0.0331897
-0.0272575
-0.0237669
-0.0230439
-0.0260256
0.0224902
-0.0540637
21.0214
-0.051976
-0.0567133
-0.0604186
-0.0627794
-0.0635346
-0.0626132
-0.0600459
-0.0557835
-0.0480235
-0.0420631
-0.0207821
0.0221289
0.0220025
-0.00826231
-0.0194522
-0.0225183
0.195598
-0.0412977
10.0815
-0.044149
-0.0483515
-0.051752
-0.0541014
-0.05515
-0.0547894
-0.0529474
-0.0493759
-0.0440901
0.0131487
0.0523249
0.0596182
0.0642418
0.0326699
-0.0122426
0.118044
0.47431
0.0876905
0.366843
-0.0365418
-0.0401781
-0.0432142
-0.045486
-0.0468075
-0.0470912
-0.0461718
-0.0433326
-0.0385043
0.00190584
0.0596081
0.0663809
0.0639281
-0.00745513
0.171448
0.547845
0.547314
0.219032
0.208061
-0.0291736
-0.0322057
-0.0347996
-0.036877
-0.0383612
-0.0392938
-0.0395428
-0.0375428
-0.0328822
-0.0271777
0.0124069
0.0595637
0.0262148
-0.00113977
0.00116316
0.46498
0.440314
0.0900606
0.222449
-0.0220615
-0.0244306
-0.0264803
-0.0282023
-0.0296711
-0.0312925
-0.0334259
-0.0330469
-0.0279588
-0.0219644
-0.0155374
-0.00572739
0.000634498
0.00945338
0.0150708
0.00574731
0.000233132
0.0378692
1.04585
-0.0151694
-0.0167278
-0.0180571
-0.0192107
-0.0205219
-0.0233927
-0.0300751
-0.0331209
-0.0261297
-0.0190409
-0.0118465
-0.00295875
0.00964048
0.0268928
0.0292824
0.0155092
-0.0179795
-0.0356492
0.964066
-0.00784166
-0.0083979
-0.00874498
-0.00905848
-0.00998738
-0.0145063
-0.0319253
-0.0310602
-0.0215998
-0.014677
-0.00836649
-0.000141727
0.0138343
0.0393052
0.0479228
0.0123719
-0.0643885
-0.242142
0.461669
)
;

boundaryField
{
    leftWall
    {
        type            fixedFluxPressure;
        gradient        uniform 0;
        value           nonuniform List<scalar> 
50
(
809.202
810.395
810.018
808.468
806.208
803.352
799.883
795.88
788.877
760.683
315.831
2.96744
0.780186
0.524996
0.487319
0.464064
0.442998
0.422988
0.401902
0.379969
0.357768
0.335534
0.313453
0.291731
0.27056
0.250108
0.230497
0.211809
0.194086
0.177348
0.161614
0.14689
0.133169
0.120434
0.108653
0.0977756
0.0877388
0.0784721
0.0699019
0.0619535
0.0545516
0.0476239
0.0411011
0.0349179
0.0290157
0.023346
0.0178729
0.0125684
0.00740748
0.0024197
)
;
    }
    rightWall
    {
        type            fixedFluxPressure;
        gradient        uniform 0;
        value           nonuniform List<scalar> 
50
(
656.119
656.736
655.745
648.739
651.393
666.684
666.696
646.422
394.02
193.858
183.546
189.168
215.043
207.431
187.377
97.8641
4.76989
3.39446
3.35647
8.35662
39.6848
50.855
53.0108
55.475
58.0872
60.6585
62.9936
64.676
60.519
14.451
0.953594
-0.146078
0.0247449
0.159782
0.270228
1.69833
15.1052
19.7926
20.3541
20.7417
20.9745
21.2833
21.0214
10.0815
0.366843
0.208061
0.222449
1.04585
0.964066
0.461669
)
;
    }
    lowerWall
    {
        type            fixedFluxPressure;
        gradient        uniform 0;
        value           nonuniform List<scalar> 
62
(
809.202
803.007
796.756
791.253
787.216
784.65
783.607
784.158
786.383
790.33
796.017
803.433
812.541
823.256
835.34
848.449
861.731
873.268
883.261
889.569
890.029
885.337
875.772
875.772
873.402
870.05
865.628
860.363
854.641
847.274
828.766
643.558
614.455
605.347
578.876
1135.1
1158.85
1223.43
1228.18
1183.95
1102.26
1001.99
901.638
1135.1
1102.19
978.948
820.015
714.699
659.768
627.62
612.134
613.778
634.812
668.3
694.417
697.187
691.988
691.721
692.281
683.777
661.876
656.119
)
;
    }
    atmosphere
    {
        type            totalPressure;
        rho             rho;
        psi             none;
        gamma           1;
        p0              uniform 0;
        value           nonuniform List<scalar> 
46
(
0
0
0
0
0
0
0
0
0
0
0
0
0
-2.66344e-05
-0.000115359
-0.000273111
-0.000504003
-0.000808641
-0.00118187
-0.00161054
-0.00207181
-0.00253317
-0.00295475
-0.00320822
-0.00336239
-0.00350937
-0.00364243
-0.0038112
-0.00370262
-0.00323368
-0.00248793
-0.00161708
-0.000782347
-0.00013177
0
0
0
0
0
0
0
-4.62606e-05
-0.00490982
-0.0270779
-0.062033
0
)
;
    }
    defaultFaces
    {
        type            empty;
    }
}


// ************************************************************************* //
