/*--------------------------------*- C++ -*----------------------------------*\
| =========                 |                                                 |
| \\      /  F ield         | OpenFOAM: The Open Source CFD Toolbox           |
|  \\    /   O peration     | Version:  v2012                                 |
|   \\  /    A nd           | Website:  www.openfoam.com                      |
|    \\/     M anipulation  |                                                 |
\*---------------------------------------------------------------------------*/
FoamFile
{
    version     2.0;
    format      ascii;
    class       surfaceScalarField;
    location    "0.85";
    object      phi;
}
// * * * * * * * * * * * * * * * * * * * * * * * * * * * * * * * * * * * * * //

dimensions      [0 3 -1 0 0 0 0];
oriented        oriented;


internalField   nonuniform List<scalar> 
4432
(
-4.28028e-06
4.28028e-06
-8.72465e-06
4.44438e-06
-1.17706e-05
3.04594e-06
-1.395e-05
2.17939e-06
-1.57738e-05
1.82379e-06
-1.74298e-05
1.65599e-06
-1.89334e-05
1.50362e-06
-2.02496e-05
1.31619e-06
-2.13458e-05
1.09622e-06
-2.22056e-05
8.59867e-07
-2.28213e-05
6.15612e-07
-2.31812e-05
3.59894e-07
-2.32536e-05
7.24783e-08
-2.30386e-05
-2.14995e-07
-2.25057e-05
-5.32942e-07
-2.15761e-05
-9.29612e-07
-2.01012e-05
-1.47486e-06
-1.79503e-05
-2.15094e-06
-1.48362e-05
-3.11412e-06
-1.04897e-05
-4.34641e-06
-5.43036e-06
-5.05937e-06
-1.12636e-06
-4.30401e-06
-1.12635e-06
-5.67962e-06
9.95991e-06
-9.69292e-06
8.45768e-06
-1.2383e-05
5.736e-06
-1.45829e-05
4.37931e-06
-1.65822e-05
3.82304e-06
-1.83866e-05
3.46041e-06
-1.99549e-05
3.07196e-06
-2.12568e-05
2.61803e-06
-2.22844e-05
2.12383e-06
-2.30486e-05
1.62405e-06
-2.35656e-05
1.13264e-06
-2.38414e-05
6.35675e-07
-2.38793e-05
1.10466e-07
-2.36353e-05
-4.59009e-07
-2.30504e-05
-1.11788e-06
-2.20283e-05
-1.95174e-06
-2.04227e-05
-3.08041e-06
-1.79741e-05
-4.59954e-06
-1.44748e-05
-6.61343e-06
-9.91251e-06
-8.90869e-06
-4.7859e-06
-1.0186e-05
-7.61489e-07
-8.32844e-06
-1.88783e-06
-5.48227e-06
1.54422e-05
-8.97394e-06
1.19494e-05
-1.16824e-05
8.44441e-06
-1.40869e-05
6.78384e-06
-1.62656e-05
6.00175e-06
-1.81963e-05
5.39112e-06
-1.9848e-05
4.72364e-06
-2.12058e-05
3.97588e-06
-2.22748e-05
3.1928e-06
-2.30752e-05
2.42446e-06
-2.36287e-05
1.6861e-06
-2.39405e-05
9.4757e-07
-2.39956e-05
1.6553e-07
-2.37579e-05
-6.96765e-07
-2.31761e-05
-1.69965e-06
-2.21625e-05
-2.96528e-06
-2.05632e-05
-4.67975e-06
-1.81397e-05
-7.02304e-06
-1.46663e-05
-1.00868e-05
-1.01088e-05
-1.34662e-05
-4.86933e-06
-1.54254e-05
-5.42411e-07
-1.26554e-05
-2.43024e-06
-5.06365e-06
2.05058e-05
-8.34523e-06
1.52309e-05
-1.11654e-05
1.12646e-05
-1.37502e-05
9.36861e-06
-1.60759e-05
8.32744e-06
-1.8105e-05
7.42022e-06
-1.98151e-05
6.43373e-06
-2.12041e-05
5.36491e-06
-2.22887e-05
4.27739e-06
-2.30993e-05
3.23507e-06
-2.36643e-05
2.25112e-06
-2.39908e-05
1.27408e-06
-2.40618e-05
2.36531e-07
-2.38468e-05
-9.11724e-07
-2.33039e-05
-2.24263e-06
-2.23566e-05
-3.91253e-06
-2.08604e-05
-6.17594e-06
-1.85856e-05
-9.29787e-06
-1.52931e-05
-1.33793e-05
-1.08524e-05
-1.79068e-05
-5.48664e-06
-2.07912e-05
-6.64216e-07
-1.74778e-05
-3.09445e-06
-4.6488e-06
2.51546e-05
-7.86539e-06
1.84475e-05
-1.08124e-05
1.42116e-05
-1.35576e-05
1.21138e-05
-1.60116e-05
1.07814e-05
-1.81209e-05
9.52951e-06
-1.98704e-05
8.18323e-06
-2.12705e-05
6.76509e-06
-2.23507e-05
5.35761e-06
-2.31538e-05
4.03817e-06
-2.37178e-05
2.81505e-06
-2.40535e-05
1.6098e-06
-2.41457e-05
3.28798e-07
-2.39701e-05
-1.0874e-06
-2.3497e-05
-2.71569e-06
-2.26671e-05
-4.7424e-06
-2.13514e-05
-7.49167e-06
-1.93271e-05
-1.13221e-05
-1.63294e-05
-1.6377e-05
-1.21387e-05
-2.20975e-05
-6.81179e-06
-2.61181e-05
-1.54879e-06
-2.27408e-05
-4.64325e-06
-4.2587e-06
2.94133e-05
-7.48407e-06
2.16729e-05
-1.05821e-05
1.73096e-05
-1.34876e-05
1.50193e-05
-1.606e-05
1.33538e-05
-1.8235e-05
1.17045e-05
-2.00072e-05
9.95545e-06
-2.14012e-05
8.15903e-06
-2.24605e-05
6.41697e-06
-2.3243e-05
4.82059e-06
-2.37983e-05
3.37041e-06
-2.41425e-05
1.95399e-06
-2.42628e-05
4.49053e-07
-2.4142e-05
-1.20812e-06
-2.37675e-05
-3.09025e-06
-2.31015e-05
-5.40835e-06
-2.20335e-05
-8.55975e-06
-2.03427e-05
-1.30129e-05
-1.77366e-05
-1.89831e-05
-1.39318e-05
-2.59024e-05
-8.88468e-06
-3.11652e-05
-3.41097e-06
-2.82145e-05
-8.05422e-06
-3.89138e-06
3.33047e-05
-7.17594e-06
2.49575e-05
-1.04583e-05
2.0592e-05
-1.35305e-05
1.80915e-05
-1.62118e-05
1.60351e-05
-1.84362e-05
1.39289e-05
-2.0213e-05
1.17323e-05
-2.15835e-05
9.52951e-06
-2.26073e-05
7.44078e-06
-2.33588e-05
5.57211e-06
-2.39013e-05
3.91292e-06
-2.42556e-05
2.30823e-06
-2.44115e-05
6.04985e-07
-2.43613e-05
-1.25835e-06
-2.41127e-05
-3.33884e-06
-2.36545e-05
-5.86655e-06
-2.28962e-05
-9.31802e-06
-2.16135e-05
-1.42957e-05
-1.94769e-05
-2.11197e-05
-1.61249e-05
-2.92544e-05
-1.13938e-05
-3.58963e-05
-5.66323e-06
-3.39451e-05
-1.37174e-05
-3.496e-06
3.68007e-05
-6.913e-06
2.83745e-05
-1.04267e-05
2.41057e-05
-1.36713e-05
2.13361e-05
-1.64466e-05
1.88104e-05
-1.86995e-05
1.61818e-05
-2.0461e-05
1.34938e-05
-2.17915e-05
1.086e-05
-2.27678e-05
8.41708e-06
-2.34818e-05
6.28611e-06
-2.40105e-05
4.44166e-06
-2.43785e-05
2.67619e-06
-2.45785e-05
8.04966e-07
-2.46141e-05
-1.22273e-06
-2.45183e-05
-3.43463e-06
-2.43109e-05
-6.07395e-06
-2.39264e-05
-9.70252e-06
-2.31358e-05
-1.50862e-05
-2.15668e-05
-2.26887e-05
-1.87294e-05
-3.20918e-05
-1.41355e-05
-4.04902e-05
-7.49521e-06
-4.05855e-05
-2.12127e-05
4.09977e-06
-4.09977e-06
-2.80601e-05
3.21598e-05
-6.0421e-05
3.23609e-05
-8.06859e-05
2.0265e-05
-8.83595e-05
7.67357e-06
-8.89808e-05
6.21253e-07
-8.74263e-05
-1.55446e-06
-8.43423e-05
-3.08403e-06
-7.88543e-05
-5.48793e-06
-7.06697e-05
-8.18464e-06
-6.03948e-05
-1.02749e-05
-4.9885e-05
-1.05098e-05
-4.18591e-05
-8.02585e-06
-3.53548e-05
-6.50431e-06
-2.67054e-05
-8.64943e-06
-1.4784e-05
-1.19214e-05
-2.12259e-06
-1.26614e-05
5.70221e-06
-7.82481e-06
5.70221e-06
-2.39768e-05
1.98771e-05
-5.75702e-05
6.57532e-05
-7.99824e-05
5.47731e-05
-8.69221e-05
2.72046e-05
-8.70906e-05
7.84209e-06
-8.56843e-05
-7.85018e-07
-8.42152e-05
-3.02359e-06
-8.17946e-05
-5.50459e-06
-7.73867e-05
-9.89584e-06
-7.05742e-05
-1.49972e-05
-6.18653e-05
-1.89838e-05
-5.28831e-05
-1.94921e-05
-4.59488e-05
-1.49601e-05
-4.0158e-05
-1.22951e-05
-3.2555e-05
-1.62524e-05
-2.21964e-05
-2.228e-05
-1.02745e-05
-2.45833e-05
1.06478e-07
-1.82058e-05
5.80869e-06
-3.61509e-05
5.60279e-05
-6.39481e-05
9.35504e-05
-7.69973e-05
6.78223e-05
-8.0987e-05
3.11943e-05
-8.18223e-05
8.67741e-06
-8.09421e-05
-1.66518e-06
-7.9826e-05
-4.13972e-06
-7.7904e-05
-7.42664e-06
-7.4203e-05
-1.35968e-05
-6.82892e-05
-2.0911e-05
-6.06839e-05
-2.65891e-05
-5.2787e-05
-2.7389e-05
-4.69845e-05
-2.07627e-05
-4.24349e-05
-1.68447e-05
-3.6322e-05
-2.23652e-05
-2.7738e-05
-3.08641e-05
-1.69312e-05
-3.53901e-05
-6.10233e-06
-2.90346e-05
-2.93645e-07
-3.86043e-05
9.46322e-05
-6.12782e-05
0.000116224
-7.05649e-05
7.7109e-05
-7.44973e-05
3.51267e-05
-7.59721e-05
1.01522e-05
-7.57004e-05
-1.93689e-06
-7.523e-05
-4.61009e-06
-7.37826e-05
-8.874e-06
-7.05494e-05
-1.683e-05
-6.5117e-05
-2.63434e-05
-5.80761e-05
-3.36299e-05
-5.08272e-05
-3.46379e-05
-4.62313e-05
-2.53585e-05
-4.32288e-05
-1.98472e-05
-3.87746e-05
-2.68195e-05
-3.20459e-05
-3.75927e-05
-2.27505e-05
-4.46855e-05
-1.06818e-05
-4.11034e-05
-1.09755e-05
-3.65021e-05
0.000131134
-5.49914e-05
0.000134714
-6.26809e-05
8.47985e-05
-6.65227e-05
3.89684e-05
-6.83658e-05
1.19954e-05
-6.88909e-05
-1.41181e-06
-6.92122e-05
-4.28875e-06
-6.81773e-05
-9.90886e-06
-6.57898e-05
-1.92176e-05
-6.09352e-05
-3.1198e-05
-5.39661e-05
-4.0599e-05
-4.68847e-05
-4.17194e-05
-4.35575e-05
-2.86857e-05
-4.23253e-05
-2.10793e-05
-3.95663e-05
-2.95785e-05
-3.4709e-05
-4.24501e-05
-2.72053e-05
-5.21892e-05
-1.42373e-05
-5.40713e-05
-2.52128e-05
-3.20533e-05
0.000163188
-4.6094e-05
0.000148754
-5.26075e-05
9.1312e-05
-5.56822e-05
4.20431e-05
-5.66466e-05
1.29597e-05
-5.71988e-05
-8.59528e-07
-5.70445e-05
-4.44309e-06
-5.66622e-05
-1.02912e-05
-5.7314e-05
-1.85657e-05
-5.50083e-05
-3.35037e-05
-4.75001e-05
-4.81072e-05
-3.99278e-05
-4.92917e-05
-3.85426e-05
-3.0071e-05
-3.93917e-05
-2.02302e-05
-3.81277e-05
-3.08425e-05
-3.49466e-05
-4.56312e-05
-2.95714e-05
-5.75644e-05
-1.71937e-05
-6.6449e-05
-4.24064e-05
-2.63676e-05
0.000189555
-3.42708e-05
0.000156658
-3.96297e-05
9.66709e-05
-4.09643e-05
4.33776e-05
-3.78134e-05
9.80886e-06
-3.34421e-05
-5.23076e-06
-3.22002e-05
-5.68504e-06
-3.85057e-05
-3.98563e-06
-4.36521e-05
-1.34193e-05
-4.30622e-05
-3.40937e-05
-3.47873e-05
-5.63821e-05
-2.61911e-05
-5.7888e-05
-2.89249e-05
-2.73372e-05
-3.35696e-05
-1.55854e-05
-3.39947e-05
-3.04174e-05
-3.15985e-05
-4.80273e-05
-2.75866e-05
-6.15763e-05
-1.80602e-05
-7.59754e-05
-6.04667e-05
-2.06296e-05
0.000210185
-2.08317e-05
0.00015686
-2.31937e-05
9.90329e-05
-2.19272e-05
4.21112e-05
-1.80195e-05
5.90119e-06
-1.31952e-05
-1.0055e-05
-1.42264e-05
-4.65386e-06
-1.98687e-05
1.65673e-06
-3.00242e-05
-3.26382e-06
-3.01592e-05
-3.39587e-05
-2.15409e-05
-6.50003e-05
-1.16417e-05
-6.77872e-05
-1.15378e-05
-2.74411e-05
-2.24835e-05
-4.63965e-06
-2.59072e-05
-2.69938e-05
-2.26846e-05
-5.12499e-05
-1.75266e-05
-6.67343e-05
-1.37185e-05
-7.97835e-05
-7.41852e-05
-5.82659e-06
4.26273e-05
-1.39739e-05
3.65217e-05
-2.22951e-05
3.24269e-05
-2.97503e-05
2.87913e-05
-3.58873e-05
2.49474e-05
-4.06866e-05
2.09811e-05
-4.43129e-05
1.71201e-05
-4.69671e-05
1.35142e-05
-4.88618e-05
1.03118e-05
-5.02442e-05
7.66853e-06
-5.13293e-05
5.5268e-06
-5.21742e-05
3.52108e-06
-5.27646e-05
1.39535e-06
-5.31636e-05
-8.23684e-07
-5.35485e-05
-3.0498e-06
-5.40874e-05
-5.53506e-06
-5.47857e-05
-9.00412e-06
-5.5201e-05
-1.4671e-05
-5.45568e-05
-2.33329e-05
-5.14715e-05
-3.51771e-05
-4.33817e-05
-4.858e-05
-2.73391e-05
-5.6628e-05
-4.86326e-05
8.08011e-08
-5.52886e-06
4.81562e-05
-1.41771e-05
4.517e-05
-2.29525e-05
4.12023e-05
-3.0622e-05
3.64608e-05
-3.66742e-05
3.09996e-05
-4.11799e-05
2.54868e-05
-4.443e-05
2.03702e-05
-4.6732e-05
1.58162e-05
-4.8392e-05
1.19718e-05
-4.97127e-05
8.98927e-06
-5.08631e-05
6.67715e-06
-5.18266e-05
4.4846e-06
-5.26001e-05
2.16885e-06
-5.34171e-05
-6.61797e-09
-5.48303e-05
-1.63659e-06
-5.71488e-05
-3.21657e-06
-6.06725e-05
-5.48043e-06
-6.50041e-05
-1.03393e-05
-6.94931e-05
-1.8844e-05
-7.24804e-05
-3.21898e-05
-7.04497e-05
-5.06107e-05
-6.3339e-05
-6.37387e-05
-5.49636e-05
-5.7008e-05
-5.87453e-06
5.40307e-05
-1.37186e-05
5.30141e-05
-2.19969e-05
4.94805e-05
-2.94738e-05
4.39378e-05
-3.54359e-05
3.69617e-05
-3.98697e-05
2.99205e-05
-4.30505e-05
2.3551e-05
-4.53328e-05
1.80985e-05
-4.71036e-05
1.37426e-05
-4.86509e-05
1.05365e-05
-4.99046e-05
7.93091e-06
-5.07513e-05
5.33131e-06
-5.1367e-05
2.78458e-06
-5.25718e-05
1.19811e-06
-5.52048e-05
9.96456e-07
-6.01979e-05
1.77649e-06
-6.74807e-05
1.8024e-06
-7.55885e-05
-2.23152e-06
-8.51966e-05
-9.23589e-06
-9.32175e-05
-2.41688e-05
-9.124e-05
-5.25883e-05
-8.17599e-05
-7.32188e-05
-6.3693e-05
-7.30304e-05
-1.15673e-05
6.5598e-05
-1.25316e-05
5.39784e-05
-1.81619e-05
5.51109e-05
-2.43906e-05
5.01664e-05
-3.00551e-05
4.26262e-05
-3.47753e-05
3.46407e-05
-3.85171e-05
2.72928e-05
-4.15461e-05
2.11275e-05
-4.41287e-05
1.63252e-05
-4.61967e-05
1.26046e-05
-4.75646e-05
9.29879e-06
-4.83984e-05
6.16514e-06
-4.93122e-05
3.69836e-06
-5.10774e-05
2.96332e-06
-5.56691e-05
5.58813e-06
-6.70698e-05
1.31772e-05
-8.06937e-05
1.54264e-05
-9.33096e-05
1.03844e-05
-0.000110134
7.58808e-06
-0.000122979
-1.13232e-05
-0.000113353
-6.22149e-05
-9.78632e-05
-8.87081e-05
-8.14703e-05
-8.0086e-05
-1.02698e-06
6.66249e-05
-5.39063e-06
5.8342e-05
-9.29453e-06
5.90147e-05
-1.36466e-05
5.45184e-05
-1.81715e-05
4.71511e-05
-2.26424e-05
3.91116e-05
-2.70322e-05
3.16826e-05
-3.1445e-05
2.55403e-05
-3.59915e-05
2.08718e-05
-4.07395e-05
1.73526e-05
-4.58816e-05
1.4441e-05
-5.17692e-05
1.20528e-05
-5.89096e-05
1.08388e-05
-6.77647e-05
1.18184e-05
-7.83547e-05
1.6178e-05
-8.82692e-05
2.30917e-05
-0.000100972
2.81287e-05
-0.00012987
3.92823e-05
-0.000166233
4.39518e-05
-0.000169532
-8.02432e-06
-0.000145444
-8.63027e-05
-0.000129962
-0.000104191
-9.70855e-05
-0.000114346
5.17137e-06
6.14535e-05
2.82048e-06
6.06929e-05
1.54593e-06
6.02892e-05
-2.29915e-07
5.62942e-05
-3.1651e-06
5.00863e-05
-7.23373e-06
4.31802e-05
-1.22256e-05
3.66745e-05
-1.79143e-05
3.12291e-05
-2.41498e-05
2.71074e-05
-3.09856e-05
2.41885e-05
-3.8771e-05
2.22265e-05
-4.80449e-05
2.13268e-05
-5.93761e-05
2.217e-05
-7.33904e-05
2.58327e-05
-9.0733e-05
3.35207e-05
-0.000113402
4.57606e-05
-0.000146391
6.11173e-05
-0.000181578
7.44701e-05
-0.000194151
5.65243e-05
-0.000181632
-2.05436e-05
-0.000166784
-0.00010115
-0.000157604
-0.000113371
-0.000108519
-0.00014617
4.24166e-06
5.72118e-05
5.28849e-06
5.96462e-05
6.85529e-06
5.87225e-05
7.39305e-06
5.57565e-05
6.17876e-06
5.13005e-05
3.15117e-06
4.62078e-05
-1.42765e-06
4.12533e-05
-7.2044e-06
3.70059e-05
-1.39055e-05
3.38086e-05
-2.15006e-05
3.17836e-05
-3.02587e-05
3.09847e-05
-4.06284e-05
3.16965e-05
-5.30736e-05
3.46152e-05
-6.80286e-05
4.07876e-05
-8.58974e-05
5.13894e-05
-0.000107243
6.71057e-05
-0.000131983
8.58575e-05
-0.000153182
9.56693e-05
-0.000163137
6.6479e-05
-0.00016779
-1.589e-05
-0.000170569
-9.83715e-05
-0.00016968
-0.00011426
-0.000110703
-0.000167496
3.11229e-06
5.40995e-05
5.51639e-06
5.72422e-05
8.05487e-06
5.61842e-05
9.65288e-06
5.41586e-05
9.67549e-06
5.1278e-05
7.9403e-06
4.79431e-05
4.55285e-06
4.46408e-05
-2.51255e-07
4.181e-05
-6.24202e-06
3.97994e-05
-1.33246e-05
3.88662e-05
-2.1594e-05
3.92542e-05
-3.12537e-05
4.13561e-05
-4.24765e-05
4.58381e-05
-5.5302e-05
5.3613e-05
-6.9527e-05
6.56144e-05
-8.44781e-05
8.20568e-05
-9.86289e-05
0.000100008
-0.000110519
0.000107559
-0.000124832
8.07924e-05
-0.000147784
7.06168e-06
-0.000165831
-8.03245e-05
-0.000169848
-0.000110243
-0.000109792
-0.000170759
2.63301e-06
5.14667e-05
5.32984e-06
5.45456e-05
7.85976e-06
5.36544e-05
9.68281e-06
5.23356e-05
1.03534e-05
5.06075e-05
9.64034e-06
4.86561e-05
7.50546e-06
4.67757e-05
4.03447e-06
4.5281e-05
-6.40171e-07
4.4474e-05
-6.41497e-06
4.46411e-05
-1.32527e-05
4.60919e-05
-2.11361e-05
4.92395e-05
-2.9959e-05
5.4661e-05
-3.9404e-05
6.30581e-05
-4.88155e-05
7.5026e-05
-5.71293e-05
9.03706e-05
-6.3413e-05
0.000106292
-6.96701e-05
0.000113816
-8.50737e-05
9.61959e-05
-0.000118115
4.01026e-05
-0.000153709
-4.473e-05
-0.000164576
-9.93755e-05
-0.000106237
-0.000168131
2.33138e-06
4.91354e-05
4.91352e-06
5.19637e-05
7.23038e-06
5.13376e-05
9.02415e-06
5.05419e-05
1.00175e-05
4.96141e-05
1.00135e-05
4.866e-05
8.92211e-06
4.78671e-05
6.74382e-06
4.74593e-05
3.53943e-06
4.76785e-05
-6.02716e-07
4.87832e-05
-5.57835e-06
5.10675e-05
-1.12344e-05
5.48955e-05
-1.72921e-05
6.07187e-05
-2.32513e-05
6.90172e-05
-2.83132e-05
8.00878e-05
-3.14606e-05
9.3518e-05
-3.22093e-05
0.00010704
-3.30006e-05
0.000114608
-4.24563e-05
0.000105652
-7.22551e-05
6.99013e-05
-0.00012211
5.12461e-06
-0.000155528
-6.59569e-05
-9.88386e-05
-0.000162927
2.01107e-06
4.71245e-05
4.35316e-06
4.96218e-05
6.4579e-06
4.9233e-05
8.18772e-06
4.88121e-05
9.37607e-06
4.84258e-05
9.88249e-06
4.81536e-05
9.62202e-06
4.81275e-05
8.56956e-06
4.85117e-05
6.75405e-06
4.9494e-05
4.25202e-06
5.12852e-05
1.19312e-06
5.41264e-05
-2.21151e-06
5.83001e-05
-5.61827e-06
6.41255e-05
-8.49399e-06
7.18931e-05
-1.01008e-05
8.16946e-05
-9.63556e-06
9.30526e-05
-6.85425e-06
0.000104259
-3.66153e-06
0.000111415
-6.15405e-06
0.000108144
-2.39054e-05
8.76525e-05
-6.56665e-05
4.68857e-05
-0.000121878
-9.7456e-06
-6.37855e-05
-0.000156931
1.70058e-06
4.5424e-05
3.78677e-06
4.75357e-05
5.71475e-06
4.73051e-05
7.39602e-06
4.71309e-05
8.73031e-06
4.70916e-05
9.6268e-06
4.72572e-05
1.00256e-05
4.77287e-05
9.90717e-06
4.86302e-05
9.29581e-06
5.01054e-05
8.26507e-06
5.23158e-05
6.94939e-06
5.5442e-05
5.56794e-06
5.96816e-05
4.4585e-06
6.52349e-05
4.10059e-06
7.22509e-05
5.09615e-06
8.0699e-05
8.02015e-06
9.01285e-05
1.2973e-05
9.93062e-05
1.86034e-05
0.000105784
2.09466e-05
0.000105801
1.32649e-05
9.53342e-05
-1.17856e-05
7.19363e-05
-5.95956e-05
3.80643e-05
-5.34533e-06
-0.000118036
1.44235e-06
4.39817e-05
3.30103e-06
4.5677e-05
5.0931e-06
4.5513e-05
6.74897e-06
4.54751e-05
8.20647e-06
4.56341e-05
9.4118e-06
4.60519e-05
1.03323e-05
4.68082e-05
1.09646e-05
4.7998e-05
1.13406e-05
4.97293e-05
1.15357e-05
5.21207e-05
1.16801e-05
5.52975e-05
1.19769e-05
5.93847e-05
1.27216e-05
6.44902e-05
1.43085e-05
7.0664e-05
1.71967e-05
7.78108e-05
2.17825e-05
8.55426e-05
2.81037e-05
9.29849e-05
3.52846e-05
9.86033e-05
4.08801e-05
0.000100205
4.07472e-05
9.54669e-05
2.98726e-05
8.28108e-05
5.66127e-06
6.22755e-05
3.43072e-05
-3.39913e-05
1.25696e-06
4.27248e-05
2.93344e-06
4.40004e-05
4.62641e-06
4.382e-05
6.27507e-06
4.38265e-05
7.83944e-06
4.40698e-05
9.29127e-06
4.45999e-05
1.06204e-05
4.54791e-05
1.18395e-05
4.67788e-05
1.29908e-05
4.85781e-05
1.41515e-05
5.09601e-05
1.54434e-05
5.40057e-05
1.70442e-05
5.7784e-05
1.91976e-05
6.23369e-05
2.22114e-05
6.765e-05
2.64241e-05
7.3598e-05
3.21092e-05
7.98574e-05
3.92903e-05
8.58036e-05
4.74447e-05
9.04489e-05
5.51716e-05
9.24782e-05
6.01231e-05
9.05154e-05
5.937e-05
8.35638e-05
5.03537e-05
7.12919e-05
5.38947e-05
3.07662e-05
1.14614e-06
4.15786e-05
2.69005e-06
4.24565e-05
4.3149e-06
4.21952e-05
5.96747e-06
4.2174e-05
7.62205e-06
4.24154e-05
9.26761e-06
4.29544e-05
1.09098e-05
4.3837e-05
1.25739e-05
4.51147e-05
1.43092e-05
4.68428e-05
1.61931e-05
4.90762e-05
1.83367e-05
5.18621e-05
2.08908e-05
5.52298e-05
2.405e-05
5.91778e-05
2.80468e-05
6.3653e-05
3.31259e-05
6.8519e-05
3.94774e-05
7.35059e-05
4.71244e-05
7.81567e-05
5.57677e-05
8.18055e-05
6.46283e-05
8.36175e-05
7.24194e-05
8.27242e-05
7.75202e-05
7.84631e-05
7.8263e-05
7.05491e-05
5.91125e-05
7.3045e-05
1.09754e-06
4.04809e-05
2.55593e-06
4.0998e-05
4.13891e-06
4.06123e-05
5.80167e-06
4.05112e-05
7.52895e-06
4.0688e-05
9.32153e-06
4.11618e-05
1.11954e-05
4.19631e-05
1.31835e-05
4.31264e-05
1.53387e-05
4.46876e-05
1.77356e-05
4.66793e-05
2.04734e-05
4.91243e-05
2.3678e-05
5.20253e-05
2.75015e-05
5.53543e-05
3.21162e-05
5.90384e-05
3.76944e-05
6.29409e-05
4.43661e-05
6.68342e-05
5.21503e-05
7.03725e-05
6.08708e-05
7.30849e-05
7.00797e-05
7.44086e-05
7.90417e-05
7.37622e-05
8.68224e-05
7.06824e-05
9.23917e-05
6.49796e-05
5.68847e-05
9.46196e-05
1.09479e-06
3.93861e-05
2.50763e-06
3.9585e-05
4.06992e-06
3.90501e-05
5.7459e-06
3.88355e-05
7.52844e-06
3.89054e-05
9.42658e-06
3.92638e-05
1.14625e-05
3.99271e-05
1.36735e-05
4.09156e-05
1.61119e-05
4.22492e-05
1.88475e-05
4.39437e-05
2.19672e-05
4.60046e-05
2.55747e-05
4.8418e-05
2.97876e-05
5.11415e-05
3.47314e-05
5.40946e-05
4.05242e-05
5.71481e-05
4.72492e-05
6.01092e-05
5.49137e-05
6.2708e-05
6.34008e-05
6.45977e-05
7.24294e-05
6.538e-05
8.15386e-05
6.46531e-05
9.01246e-05
6.20963e-05
9.7492e-05
5.76122e-05
5.15229e-05
0.000102854
1.12454e-06
3.82616e-05
2.52279e-06
3.81869e-05
4.07972e-06
3.74932e-05
5.76858e-06
3.71469e-05
7.58917e-06
3.70849e-05
9.55612e-06
3.72969e-05
1.16955e-05
3.77877e-05
1.40454e-05
3.85657e-05
1.66561e-05
3.96386e-05
1.95904e-05
4.10094e-05
2.29234e-05
4.26717e-05
2.67396e-05
4.4602e-05
3.11292e-05
4.67518e-05
3.61825e-05
4.90413e-05
4.19777e-05
5.1353e-05
4.85627e-05
5.35241e-05
5.59298e-05
5.53409e-05
6.39859e-05
5.65416e-05
7.25299e-05
5.6836e-05
8.124e-05
5.5943e-05
8.96842e-05
5.3652e-05
9.73535e-05
4.99429e-05
4.51792e-05
0.000103697
1.17757e-06
3.70839e-05
2.58282e-06
3.67817e-05
4.1436e-06
3.59325e-05
5.84162e-06
3.54488e-05
7.68313e-06
3.52434e-05
9.6865e-06
3.52934e-05
1.188e-05
3.55942e-05
1.43009e-05
3.61449e-05
1.69954e-05
3.6944e-05
2.00192e-05
3.79855e-05
2.34358e-05
3.92551e-05
2.73133e-05
4.07244e-05
3.17212e-05
4.2344e-05
3.6723e-05
4.40394e-05
4.23689e-05
4.57073e-05
4.86812e-05
4.72119e-05
5.56386e-05
4.83834e-05
6.31577e-05
4.90224e-05
7.10775e-05
4.89161e-05
7.91517e-05
4.78686e-05
8.70521e-05
4.57516e-05
9.4395e-05
4.25999e-05
3.87719e-05
0.000100802
1.24627e-06
3.58376e-05
2.67202e-06
3.53559e-05
4.23995e-06
3.43649e-05
5.94067e-06
3.3748e-05
7.78617e-06
3.3398e-05
9.7977e-06
3.32818e-05
1.20044e-05
3.33876e-05
1.44415e-05
3.37079e-05
1.71509e-05
3.42346e-05
2.01808e-05
3.49557e-05
2.35841e-05
3.5852e-05
2.74153e-05
3.68931e-05
3.17274e-05
3.80321e-05
3.6565e-05
3.9202e-05
4.19581e-05
4.03141e-05
4.79124e-05
4.12575e-05
5.43973e-05
4.18984e-05
6.13342e-05
4.20854e-05
6.85868e-05
4.16634e-05
7.59562e-05
4.04991e-05
8.31854e-05
3.85223e-05
8.99833e-05
3.58021e-05
3.26674e-05
9.60877e-05
1.32212e-06
3.45157e-05
2.77534e-06
3.39026e-05
4.34894e-06
3.27915e-05
6.04405e-06
3.2053e-05
7.87745e-06
3.15647e-05
9.87289e-06
3.12864e-05
1.20592e-05
3.12014e-05
1.44694e-05
3.12978e-05
1.71408e-05
3.15633e-05
2.01145e-05
3.19821e-05
2.34342e-05
3.25326e-05
2.71431e-05
3.31841e-05
3.12811e-05
3.3894e-05
3.58793e-05
3.46038e-05
4.09543e-05
3.52392e-05
4.6501e-05
3.57107e-05
5.24846e-05
3.59147e-05
5.88316e-05
3.57382e-05
6.54242e-05
3.50708e-05
7.20981e-05
3.38251e-05
7.86487e-05
3.19718e-05
8.48531e-05
2.95976e-05
2.69944e-05
9.05261e-05
1.39553e-06
3.31201e-05
2.87719e-06
3.24211e-05
4.45192e-06
3.12167e-05
6.1322e-06
3.03727e-05
7.93909e-06
2.97578e-05
9.89814e-06
2.93275e-05
1.20372e-05
2.90623e-05
1.43873e-05
2.8948e-05
1.69808e-05
2.89699e-05
1.98528e-05
2.91102e-05
2.3039e-05
2.93464e-05
2.65737e-05
2.96495e-05
3.04868e-05
2.99809e-05
3.47995e-05
3.02912e-05
3.95194e-05
3.05192e-05
4.46358e-05
3.05943e-05
5.01129e-05
3.04376e-05
5.58837e-05
2.99673e-05
6.18466e-05
2.91077e-05
6.78651e-05
2.78066e-05
7.37742e-05
2.60626e-05
7.94011e-05
2.39707e-05
2.17865e-05
8.46091e-05
1.4572e-06
3.16627e-05
2.96248e-06
3.09158e-05
4.53183e-06
2.96472e-05
6.18806e-06
2.87165e-05
7.95612e-06
2.79897e-05
9.86238e-06
2.74214e-05
1.19337e-05
2.6991e-05
1.41984e-05
2.66835e-05
1.66851e-05
2.64833e-05
1.94233e-05
2.6372e-05
2.2442e-05
2.63276e-05
2.57687e-05
2.63228e-05
2.94257e-05
2.6324e-05
3.34273e-05
2.62897e-05
3.77756e-05
2.61709e-05
4.24572e-05
2.59127e-05
4.74377e-05
2.54571e-05
5.26578e-05
2.47472e-05
5.80306e-05
2.37348e-05
6.34426e-05
2.23946e-05
6.87601e-05
2.07452e-05
7.3846e-05
1.88848e-05
1.70374e-05
7.85952e-05
1.49947e-06
3.01632e-05
3.01867e-06
2.93967e-05
4.57443e-06
2.80914e-05
6.19789e-06
2.7093e-05
7.9169e-06
2.62708e-05
9.75755e-06
2.55807e-05
1.17458e-05
2.50028e-05
1.39072e-05
2.45223e-05
1.62666e-05
2.41239e-05
1.88493e-05
2.37894e-05
2.16789e-05
2.3498e-05
2.47771e-05
2.32246e-05
2.8161e-05
2.29402e-05
3.18401e-05
2.26106e-05
3.58138e-05
2.21972e-05
4.00677e-05
2.16588e-05
4.45705e-05
2.09542e-05
4.92708e-05
2.00468e-05
5.40952e-05
1.89103e-05
5.89496e-05
1.75401e-05
6.37248e-05
1.597e-05
6.83107e-05
1.4299e-05
1.27253e-05
7.26229e-05
1.51752e-06
2.86457e-05
3.03719e-06
2.78771e-05
4.56987e-06
2.65586e-05
6.1523e-06
2.55107e-05
7.81366e-06
2.46098e-05
9.57907e-06
2.38151e-05
1.14733e-05
2.31088e-05
1.35188e-05
2.2477e-05
1.57377e-05
2.1905e-05
1.81512e-05
2.13759e-05
2.0779e-05
2.08702e-05
2.36382e-05
2.03654e-05
2.67421e-05
1.98364e-05
3.00973e-05
1.92554e-05
3.37018e-05
1.85927e-05
3.75419e-05
1.78185e-05
4.15903e-05
1.69058e-05
4.58032e-05
1.58338e-05
5.01194e-05
1.4594e-05
5.44612e-05
1.31983e-05
5.87392e-05
1.1692e-05
6.28635e-05
1.01747e-05
8.82415e-06
6.67645e-05
1.51002e-06
2.71357e-05
3.01423e-06
2.63731e-05
4.51348e-06
2.50592e-05
6.04681e-06
2.39775e-05
7.64306e-06
2.30139e-05
9.32597e-06
2.21321e-05
1.11183e-05
2.13168e-05
1.30398e-05
2.05554e-05
1.51101e-05
1.98346e-05
1.73471e-05
1.91389e-05
1.9767e-05
1.84501e-05
2.23839e-05
1.77484e-05
2.5208e-05
1.70122e-05
2.82442e-05
1.6219e-05
3.14903e-05
1.53466e-05
3.49343e-05
1.43745e-05
3.8553e-05
1.32871e-05
4.231e-05
1.20768e-05
4.6155e-05
1.07491e-05
5.00241e-05
9.32911e-06
5.38442e-05
7.87188e-06
5.75415e-05
6.4774e-06
5.3081e-06
6.10575e-05
1.47852e-06
2.56574e-05
2.9505e-06
2.49012e-05
4.40552e-06
2.36043e-05
5.88172e-06
2.25014e-05
7.40615e-06
2.14896e-05
9.00086e-06
2.05375e-05
1.06858e-05
1.96321e-05
1.24785e-05
1.87626e-05
1.43959e-05
1.79171e-05
1.64534e-05
1.70813e-05
1.86645e-05
1.6239e-05
2.10406e-05
1.53722e-05
2.35901e-05
1.44627e-05
2.63167e-05
1.34924e-05
2.92185e-05
1.24449e-05
3.22856e-05
1.13074e-05
3.54991e-05
1.00735e-05
3.88296e-05
8.74622e-06
4.22363e-05
7.34236e-06
4.56675e-05
5.89789e-06
4.90638e-05
4.47564e-06
5.23645e-05
3.1767e-06
2.15186e-06
5.55207e-05
1.42638e-06
2.42312e-05
2.85021e-06
2.34775e-05
4.25011e-06
2.22046e-05
5.66126e-06
2.10904e-05
7.10772e-06
2.0043e-05
8.60942e-06
1.90359e-05
1.01831e-05
1.80584e-05
1.18445e-05
1.71012e-05
1.36078e-05
1.61537e-05
1.54862e-05
1.52029e-05
1.7491e-05
1.42342e-05
1.96316e-05
1.32316e-05
2.19149e-05
1.21794e-05
2.4344e-05
1.10633e-05
2.69175e-05
9.87141e-06
2.96276e-05
8.59716e-06
3.24597e-05
7.2413e-06
3.53907e-05
5.81528e-06
3.83882e-05
4.34491e-06
4.14112e-05
2.87486e-06
4.44124e-05
1.47452e-06
4.73428e-05
2.46374e-07
-6.67729e-07
5.01624e-05
1.35796e-06
2.28735e-05
2.71959e-06
2.21159e-05
4.0539e-06
2.08703e-05
5.39224e-06
1.97522e-05
6.75507e-06
1.868e-05
8.15954e-06
1.76317e-05
9.61961e-06
1.65983e-05
1.11487e-05
1.55722e-05
1.27588e-05
1.45436e-05
1.4461e-05
1.35008e-05
1.62647e-05
1.24305e-05
1.81778e-05
1.13185e-05
2.02058e-05
1.01514e-05
2.23515e-05
8.91752e-06
2.46139e-05
7.60895e-06
2.69874e-05
6.22356e-06
2.9461e-05
4.76771e-06
3.20171e-05
3.25929e-06
3.4631e-05
1.73108e-06
3.72714e-05
2.34609e-07
3.99015e-05
-1.15551e-06
4.24836e-05
-2.33566e-06
-3.16993e-06
4.49859e-05
1.27782e-06
2.15958e-05
2.56531e-06
2.08286e-05
3.82451e-06
1.96109e-05
5.08256e-06
1.84943e-05
6.35646e-06
1.74061e-05
7.66007e-06
1.63282e-05
9.00499e-06
1.52534e-05
1.04022e-05
1.4175e-05
1.18617e-05
1.30842e-05
1.33926e-05
1.197e-05
1.50026e-05
1.08204e-05
1.66982e-05
9.62283e-06
1.84839e-05
8.36564e-06
2.0362e-05
7.03945e-06
2.23318e-05
5.6391e-06
2.43894e-05
4.16589e-06
2.65269e-05
2.63027e-06
2.87315e-05
1.0548e-06
3.09853e-05
-5.22624e-07
3.32654e-05
-2.04552e-06
3.55454e-05
-3.43539e-06
3.77974e-05
-4.58768e-06
-5.37097e-06
3.99986e-05
1.1898e-06
2.04059e-05
2.39316e-06
1.96251e-05
3.56881e-06
1.84351e-05
4.73965e-06
1.73235e-05
5.91973e-06
1.62261e-05
7.1196e-06
1.51283e-05
8.3487e-06
1.40244e-05
9.61571e-06
1.29081e-05
1.09286e-05
1.17713e-05
1.22947e-05
1.06039e-05
1.37202e-05
9.39479e-06
1.52104e-05
8.13271e-06
1.67685e-05
6.80755e-06
1.83962e-05
5.41173e-06
2.00932e-05
3.94215e-06
2.18565e-05
2.40251e-06
2.36808e-05
8.06058e-07
2.55571e-05
-8.21572e-07
2.74737e-05
-2.43919e-06
2.94153e-05
-3.9871e-06
3.13642e-05
-5.38428e-06
3.33024e-05
-6.52583e-06
-7.28377e-06
3.52153e-05
1.09593e-06
1.93099e-05
2.20697e-06
1.85138e-05
3.29154e-06
1.73505e-05
4.36916e-06
1.62457e-05
5.45117e-06
1.51442e-05
6.54533e-06
1.40341e-05
7.65886e-06
1.29109e-05
8.79831e-06
1.17687e-05
9.96988e-06
1.05998e-05
1.11793e-05
9.39453e-06
1.24313e-05
8.14279e-06
1.37295e-05
6.83447e-06
1.50764e-05
5.46075e-06
1.64727e-05
4.01545e-06
1.79179e-05
2.49695e-06
1.94099e-05
9.10506e-07
2.0945e-05
-7.29023e-07
2.25177e-05
-2.39426e-06
2.41209e-05
-4.04231e-06
2.57457e-05
-5.61191e-06
2.73825e-05
-7.02108e-06
2.90222e-05
-8.16546e-06
-8.9201e-06
3.06586e-05
9.95953e-07
1.83139e-05
2.0077e-06
1.75018e-05
2.99467e-06
1.63633e-05
3.9742e-06
1.52661e-05
4.95496e-06
1.41634e-05
5.94246e-06
1.30465e-05
6.94168e-06
1.19116e-05
7.95734e-06
1.0753e-05
8.9941e-06
9.56298e-06
1.00561e-05
8.33253e-06
1.11467e-05
7.05219e-06
1.22683e-05
5.71299e-06
1.34217e-05
4.30736e-06
1.46069e-05
2.83023e-06
1.58229e-05
1.28088e-06
1.7068e-05
-3.34639e-07
1.83397e-05
-2.00072e-06
1.96348e-05
-3.68936e-06
2.09499e-05
-5.35735e-06
2.22814e-05
-6.94345e-06
2.36267e-05
-8.36626e-06
2.49845e-05
-9.52317e-06
-1.02926e-05
2.63572e-05
8.87645e-07
1.74261e-05
1.79348e-06
1.65958e-05
2.67755e-06
1.5479e-05
3.55537e-06
1.43881e-05
4.43312e-06
1.32855e-05
5.3142e-06
1.21654e-05
6.20151e-06
1.10242e-05
7.09822e-06
9.8562e-06
8.00763e-06
8.65357e-06
8.93256e-06
7.40763e-06
9.87505e-06
6.10973e-06
1.0836e-05
4.75209e-06
1.18148e-05
3.32845e-06
1.28104e-05
1.83464e-06
1.38209e-05
2.7025e-07
1.48448e-05
-1.3586e-06
1.58801e-05
-3.03619e-06
1.69255e-05
-4.7348e-06
1.79801e-05
-6.41197e-06
1.90445e-05
-8.00784e-06
2.01215e-05
-9.44316e-06
2.12169e-05
-1.06185e-05
-1.14169e-05
2.23412e-05
7.6755e-07
1.66585e-05
1.56071e-06
1.58024e-05
2.33783e-06
1.47018e-05
3.11193e-06
1.36139e-05
3.88657e-06
1.25108e-05
4.6628e-06
1.13891e-05
5.44167e-06
1.02452e-05
6.22507e-06
9.07273e-06
7.01513e-06
7.86351e-06
7.81371e-06
6.60906e-06
8.62177e-06
5.30164e-06
9.43882e-06
3.93499e-06
1.02626e-05
2.50458e-06
1.10903e-05
1.00693e-06
1.19194e-05
-5.58961e-07
1.27482e-05
-2.18745e-06
1.35753e-05
-3.86337e-06
1.44002e-05
-5.55984e-06
1.52241e-05
-7.2359e-06
1.60503e-05
-8.83409e-06
1.68859e-05
-1.02787e-05
1.77425e-05
-1.1475e-05
-1.23121e-05
1.86377e-05
6.31966e-07
1.60265e-05
1.30565e-06
1.51284e-05
1.97352e-06
1.40339e-05
2.64414e-06
1.29431e-05
3.31747e-06
1.18373e-05
3.99176e-06
1.07147e-05
4.66645e-06
9.57043e-06
5.34233e-06
8.39679e-06
6.02084e-06
7.18497e-06
6.70336e-06
5.9265e-06
7.39032e-06
4.61462e-06
8.08004e-06
3.24519e-06
8.76806e-06
1.81653e-06
9.44922e-06
3.25779e-07
1.01204e-05
-1.23007e-06
1.07797e-05
-2.84679e-06
1.14265e-05
-4.51016e-06
1.2061e-05
-6.19435e-06
1.26853e-05
-7.86024e-06
1.33048e-05
-9.45349e-06
1.39291e-05
-1.09029e-05
1.45742e-05
-1.212e-05
-1.30017e-05
1.52638e-05
4.78109e-07
1.55483e-05
1.02688e-06
1.45794e-05
1.58648e-06
1.34742e-05
2.15706e-06
1.23723e-05
2.73291e-06
1.12614e-05
3.30924e-06
1.01383e-05
3.88406e-06
8.99554e-06
4.45745e-06
7.82335e-06
5.03075e-06
6.6116e-06
5.60563e-06
5.35153e-06
6.18293e-06
4.03723e-06
6.76052e-06
2.66757e-06
7.33077e-06
1.24632e-06
7.88507e-06
-2.28442e-07
8.41971e-06
-1.76462e-06
8.93361e-06
-3.36067e-06
9.42673e-06
-5.00328e-06
9.89996e-06
-6.66756e-06
1.03561e-05
-8.31627e-06
1.08012e-05
-9.89844e-06
1.12465e-05
-1.1348e-05
1.17103e-05
-1.25838e-05
-1.3512e-05
1.22206e-05
3.06102e-07
1.52419e-05
7.29478e-07
1.41558e-05
1.18753e-06
1.30159e-05
1.66523e-06
1.18945e-05
2.14922e-06
1.07774e-05
2.63196e-06
9.65549e-06
3.11048e-06
8.51696e-06
3.58465e-06
7.34908e-06
4.05618e-06
6.13995e-06
4.52796e-06
4.87965e-06
5.00292e-06