/*--------------------------------*- C++ -*----------------------------------*\
| =========                 |                                                 |
| \\      /  F ield         | OpenFOAM: The Open Source CFD Toolbox           |
|  \\    /   O peration     | Version:  v2012                                 |
|   \\  /    A nd           | Website:  www.openfoam.com                      |
|    \\/     M anipulation  |                                                 |
\*---------------------------------------------------------------------------*/
FoamFile
{
    version     2.0;
    format      ascii;
    class       volScalarField;
    location    "0.9";
    object      alpha.water;
}
// * * * * * * * * * * * * * * * * * * * * * * * * * * * * * * * * * * * * * //

dimensions      [0 0 0 0 0 0 0];


internalField   nonuniform List<scalar> 
2268
(
1
1
1
1
1
1
1
1
1
1
1
1
1
0.999998
0.999983
0.995789
0.966194
0.959522
0.959522
0.959522
0.959557
0.98652
0.999616
1
1
1
1
1
1
1
1
1
1
1
1
1
1
0.999999
0.999935
0.997703
0.986053
0.977347
0.977203
0.986755
0.992409
0.999634
1
1
1
1
1
1
1
1
1
1
1
1
1
1
1
1
1
1
1
1
1
1
0.999664
1
1
1
1
1
1
1
1
1
1
1
1
1
1
1
1
1
1
1
1
0.999995
0.999949
0.999664
1
1
1
1
1
1
1
1
1
1
1
1
1
1
1
1
1
1
1
1
0.99998
0.999837
0.999679
1
1
1
1
1
1
1
1
1
1
1
1
1
1
1
1
1
1
0.999999
0.999996
0.999976
0.999918
0.999783
1
1
1
1
1
1
1
1
1
1
1
1
1
1
1
1
0.999999
0.999997
0.999989
0.999975
0.999939
0.999876
0.999803
1
1
1
1
1
1
1
1
1
1
1
1
1
1
1
0.999999
0.999996
0.99998
0.999931
0.999861
0.999651
0.998374
0.992322
0.489967
0.865143
0.996924
0.990923
0.98813
0.989843
0.996536
0.996355
0.984516
0.945184
0.937301
0.936958
0.927332
0.9176
0.915844
0.914742
0.935589
0.936881
0.948653
0.690968
0.973347
0.997045
0.996923
0.996321
0.996584
0.996582
0.996536
0.996358
0.996105
0.995907
0.995819
0.99576
0.981445
0.93739
0.914074
0.909729
0.909757
0.959007
0.965548
0.996954
0.996954
0.996957
0.996912
0.996742
0.995821
0.99654
0.996385
0.995944
0.99584
0.995771
0.995715
0.995724
0.995674
0.987013
0.927094
0.911621
0.956398
0.995512
0.996236
0.996984
0.996972
0.96252
0.793457
0.695553
0.679435
0.817474
0.938103
0.994152
0.995349
0.995717
0.995677
0.995058
0.992429
0.985814
0.952912
0.914235
0.994576
0.995512
0.996138
0.901153
0.355416
0.135721
0.11142
0.109873
0.116408
0.32441
0.625656
0.949302
0.994826
0.994554
0.937039
0.859327
0.846472
0.923906
0.915792
0.99372
0.994514
0.978901
0.506233
0.112674
0.111384
0.109915
0.109905
0.109915
0.110247
0.112008
0.454296
0.659531
0.724421
0.348909
0.190024
0.203119
0.516596
0.8887
0.993585
0.993545
0.985468
0.496592
0.122773
0.166437
0.129744
0.109915
0.110247
0.110817
0.191186
0.253534
0.166616
0.161173
0.0532955
0.0532965
0.052105
0.052012
0.37204
0.993757
0.993499
0.932096
0.359344
0.486589
0.690946
0.557595
0.122606
0.110817
0.129677
0.536864
0.621603
0.213337
0.0538499
0.0532965
0.0532952
0.0534023
0.0534789
0.0549704
1
1
1
1
1
1
1
1
1
1
1
1
1
1
0.999999
0.999995
0.999969
0.999851
0.999532
0.999187
0.99864
0.970977
0.920446
1
1
1
1
1
1
1
1
1
1
1
1
1
0.999999
0.999995
0.999591
0.997816
0.990116
0.981615
0.990404
0.994516
0.926848
0.856348
0.996436
0.967803
0.917546
0.851665
0.777598
0.706676
0.648587
0.607672
0.581546
0.569484
0.571887
0.596334
0.643742
0.70905
0.761615
0.777645
0.725505
0.582789
0.516397
0.673689
0.72585
0.659454
0.856994
0.446141
0.357376
0.253534
0.160675
0.0940791
0.0533922
0.0311204
0.0198851
0.0144457
0.012522
0.0131715
0.0171722
0.0258095
0.0454832
0.094638
0.150765
0.155291
0.108361
0.185869
0.288478
0.124398
0.0563101
0.492018
0.00554481
0.00198912
0.00159622
0.00103043
0.000588309
0.000317195
0.000169258
9.36045e-05
5.71309e-05
4.14383e-05
4.15103e-05
7.14289e-05
0.00019052
0.000552182
0.0014375
0.00334631
0.00725768
0.0446819
0.150058
0.144415
0.0167895
0.00693392
0.00323941
0.00038081
0.000230777
0.000191229
0.00012159
6.55978e-05
3.26003e-05
1.58857e-05
8.12251e-06
4.77751e-06
3.6897e-06
5.04703e-06
1.42619e-05
5.30467e-05
0.000193972
0.000599751
0.00161032
0.00336645
0.00897866
0.0651987
0.142402
0.04791
0.00323941
0.00241594
5.05301e-05
3.19642e-05
2.56758e-05
1.52835e-05
7.76112e-06
3.6215e-06
1.66157e-06
8.15705e-07
4.80143e-07
4.19047e-07
8.39725e-07
3.41012e-06
1.56913e-05
5.91122e-05
0.000217521
0.000678388
0.00152187
0.00351459
0.0261516
0.110104
0.110939
0.0814093
0.00162472
6.24593e-06
4.08423e-06
3.28573e-06
1.94498e-06
9.57518e-07
4.29147e-07
1.90112e-07
9.19468e-08
5.53719e-08
5.55159e-08
1.51747e-07
7.94433e-07
3.52273e-06
1.64596e-05
7.14485e-05
0.000238282
0.000612864
0.00138611
0.0203373
0.101015
0.112223
0.110939
0.0276379
7.68757e-07
5.21667e-07
4.21412e-07
2.49709e-07
1.21636e-07
5.35724e-08
2.33899e-08
1.13394e-08
6.97119e-09
7.51988e-09
2.5218e-08
1.51443e-07
7.81171e-07
4.60157e-06
2.09443e-05
6.99454e-05
0.00019031
0.000275626
0.000989513
0.0333902
0.110939
0.10795
0.0904818
9.36982e-08
6.64468e-08
5.39464e-08
3.2204e-08
1.57443e-08
6.95722e-09
3.04726e-09
1.46569e-09
8.86226e-10
9.33416e-10
3.39686e-09
2.48195e-08
1.51628e-07
9.84839e-07
4.4094e-06
1.36163e-05
2.97148e-05
5.71901e-05
6.63429e-05
0.000553754
0.0438372
0.104961
0.103845
1.13987e-08
8.5161e-09
6.94773e-09
4.19061e-09
2.15432e-09
1.03297e-09
4.93528e-10
2.23569e-10
1.04893e-10
-1.40235e-13
1.79275e-10
3.42036e-09
2.5414e-08
1.597e-07
7.90809e-07
2.45135e-06
5.21966e-06
9.1444e-06
1.42761e-05
3.32627e-06
0.000113761
0.0223605
0.106579
1.46192e-09
1.2239e-09
1.01368e-09
6.57906e-10
3.68654e-10
1.82738e-10
7.33268e-11
1.22174e-11
0
-1.40097e-10
-4.44949e-13
1.74004e-10
3.45369e-09
2.80455e-08
1.52096e-07
4.85036e-07
9.84834e-07
1.54323e-06
1.96932e-06
8.1995e-07
-2.19466e-06
9.44647e-07
-2.72576e-05
2.37406e-10
2.12138e-10
1.76584e-10
1.13506e-10
6.34847e-11
4.12108e-11
8.70758e-12
2.06795e-27
-1.83364e-10
-5.88422e-10
-9.66202e-10
-2.88309e-12
1.81961e-10
4.0837e-09
2.6421e-08
8.70752e-08
1.7174e-07
2.5793e-07
3.0673e-07
2.71939e-07
6.83512e-08
-6.43774e-08
-2.61976e-08
3.6552e-11
4.16016e-11
4.04645e-11
3.3756e-11
2.14338e-11
7.18005e-12
0
-6.06476e-11
-2.19165e-10
-5.01289e-10
-8.74886e-10
-8.96685e-10
-9.27041e-12
5.88061e-10
4.08336e-09
1.41051e-08
2.8045e-08
4.05094e-08
4.66284e-08
4.73932e-08
5.4482e-08
6.66112e-08
5.61814e-09
1.17303e-11
1.24327e-11
1.0773e-11
7.75422e-12
3.87439e-12
2.80818e-13
-1.16269e-11
-5.67922e-11
-1.47849e-10
-3.04176e-10
-5.29029e-10
-7.35279e-10
-3.86274e-10
-2.1742e-12
4.8589e-10
2.01493e-09
4.12712e-09
6.01301e-09
6.8748e-09
6.6632e-09
7.65658e-09
1.5796e-08
1.69172e-08
2.11104e-12
2.13001e-12
1.6819e-12
1.01997e-12
2.67662e-13
-8.41122e-13
-1.03929e-11
-3.29698e-11
-7.60997e-11
-1.49299e-10
-2.58409e-10
-3.94276e-10
-4.23828e-10
-2.64383e-11
1.66742e-27
2.46473e-10
6.26283e-10
9.65246e-10
1.09013e-09
1.06381e-09
1.0912e-09
1.01848e-09
3.3752e-09
2.24103e-13
2.32008e-13
1.82331e-13
9.88146e-14
7.92009e-15
-1.14247e-12
-5.44248e-12
-1.47471e-11
-3.20997e-11
-6.15899e-11
-1.06665e-10
-1.69613e-10
-2.24411e-10
-1.80478e-10
-6.88496e-13
2.18474e-11
8.72874e-11
1.49866e-10
1.69804e-10
2.38885e-10
2.87667e-10
3.25273e-10
4.27004e-10
2.3146e-14
2.45777e-14
1.90912e-14
7.73264e-15
-3.99072e-14
-5.97427e-13
-2.16659e-12
-5.41386e-12
-1.14156e-11
-2.16955e-11
-3.77642e-11
-6.15168e-11
-8.95337e-11
-1.02659e-10
-5.19605e-11
0
5.18232e-12
1.91279e-11
3.61588e-11
6.15023e-11
7.96244e-11
1.02655e-10
1.19731e-10
2.36898e-15
2.54314e-15
1.88617e-15
2.51218e-16
-3.41911e-14
-2.23063e-13
-7.05012e-13
-1.67762e-12
-3.47204e-12
-6.57735e-12
-1.15323e-11
-1.91105e-11
-2.93062e-11
-3.92067e-11
-3.6404e-11
-1.14948e-11
5.12906e-28
1.33829e-12
6.37064e-12
1.18769e-11
1.75145e-11
2.2921e-11
2.81609e-11
2.32475e-16
2.50788e-16
1.68171e-16
-3.13535e-17
-1.37866e-14
-6.67591e-14
-1.93635e-13
-4.45543e-13
-9.10675e-13
-1.7236e-12
-3.04411e-12
-5.11043e-12
-8.0862e-12
-1.17425e-11
-1.36834e-11
-9.81882e-12
-2.5957e-12
6.41132e-29
2.24032e-13
1.05736e-12
2.08131e-12
2.97809e-12
3.89324e-12
2.16938e-17
2.33492e-17
1.36955e-17
-2.73696e-16
-4.09515e-15
-1.67537e-14
-4.56832e-14
-1.02371e-13
-2.07069e-13
-3.91414e-13
-6.95028e-13
-1.17742e-12
-1.89841e-12
-2.88694e-12
-3.78692e-12
-3.59436e-12
-2.03661e-12
-5.76756e-13
0
8.4864e-15
9.58163e-14
1.90702e-13
2.65761e-13
1.92009e-18
2.03933e-18
8.09082e-19
-1.10831e-16
-9.89953e-16
-3.60796e-15
-9.35925e-15
-2.04773e-14
-4.09612e-14
-7.71459e-14
-1.37246e-13
-2.33528e-13
-3.80102e-13
-5.92291e-13
-8.30447e-13
-9.12352e-13
-6.78981e-13
-3.23314e-13
-9.47088e-14
-9.16099e-15
5.00884e-31
5.7146e-15
1.0479e-14
1.60664e-19
1.65042e-19
2.34746e-20
-2.98718e-17
-2.02878e-16
-6.75995e-16
-1.67735e-15
-3.58181e-15
-7.06674e-15
-1.32086e-14
-2.34272e-14
-3.98077e-14
-6.48507e-14
-1.01926e-13
-1.47987e-13
-1.76736e-13
-1.52105e-13
-8.98206e-14
-3.70499e-14
-1.06818e-14
-1.79327e-15
0
2.32319e-16
1.26388e-20
1.23935e-20
-6.2162e-20
-6.38122e-18
-3.60133e-17
-1.11197e-16
-2.64359e-16
-5.49665e-16
-1.06522e-15
-1.96552e-15
-3.45384e-15
-5.81984e-15
-9.40504e-15
-1.47094e-14
-2.1605e-14
-2.69608e-14
-2.51747e-14
-1.66548e-14
-7.98221e-15
-2.88599e-15
-8.05658e-16
-1.69429e-16
3.54172e-18
9.27681e-22
8.42954e-22
-3.85867e-20
-1.14601e-18
-5.60987e-18
-1.61616e-17
-3.67855e-17
-7.41938e-17
-1.40484e-16
-2.54252e-16
-4.39336e-16
-7.27996e-16
-1.15543e-15
-1.77446e-15
-2.58406e-15
-3.26803e-15
-3.17003e-15
-2.21495e-15
-1.13703e-15
-4.49288e-16
-1.43095e-16
-3.68377e-17
4.86603e-17
6.25179e-23
4.24479e-23
-9.90516e-21
-1.77957e-19
-7.73489e-19
-2.08536e-18
-4.53346e-18
-8.8269e-18
-1.62275e-17
-2.85907e-17
-4.816e-17
-7.77092e-17
-1.19745e-16
-1.78009e-16
-2.51965e-16
-3.14057e-16
-3.05e-16
-2.14834e-16
-1.11531e-16
-4.47141e-17
-1.45283e-17
-2.72798e-18
6.96316e-17
3.58998e-24
1.01921e-24
-1.86292e-21
-2.42795e-20
-9.49795e-20
-2.39769e-19
-4.96106e-19
-9.27224e-19
-1.6433e-18
-2.79474e-18
-4.54381e-18
-7.05838e-18
-1.04196e-17
-1.47496e-17
-1.98581e-17
-2.36914e-17
-2.2183e-17
-1.50336e-17
-7.45652e-18
-2.82664e-18
-8.35972e-19
1.54403e-18
7.68927e-17
1.50667e-25
-1.41566e-24
-2.86933e-22
-2.94037e-21
-1.04349e-20
-2.46401e-20
-4.83153e-20
-8.6138e-20
-1.46018e-19
-2.37463e-19
-3.68505e-19
-5.43908e-19
-7.57209e-19
-1.00112e-18
-1.24993e-18
-1.37934e-18
-1.19052e-18
-7.32826e-19
-3.22083e-19
-1.04028e-19
-9.58468e-21
2.09031e-18
7.6866e-17
-1.46937e-41
-9.67e-25
-3.78112e-23
-3.18349e-22
-1.02955e-21
-2.26924e-21
-4.19628e-21
-7.08807e-21
-1.13957e-20
-1.754e-20
-2.56592e-20
-3.54488e-20
-4.56911e-20
-5.5118e-20
-6.18487e-20
-6.04369e-20
-4.52404e-20
-2.3197e-20
-7.89925e-21
-1.60502e-21
2.35978e-20
2.12734e-18
6.53907e-17
-1.10864e-26
-2.02818e-25
-4.36078e-24
-3.09821e-23
-9.15183e-23
-1.87754e-22
-3.25706e-22
-5.17526e-22
-7.82053e-22
-1.12667e-21
-1.53252e-21
-1.94813e-21
-2.27489e-21
-2.43318e-21
-2.35706e-21
-1.9208e-21
-1.1349e-21
-4.11678e-22
-7.35513e-23
3.10139e-23
2.39238e-20
1.7425e-18
4.18633e-17
-4.12063e-27
-3.04335e-26
-4.46356e-25
-2.72275e-24
-7.35202e-24
-1.39922e-23
-2.26444e-23
-3.35951e-23
-4.72675e-23
-6.2984e-23
-7.84665e-23
-9.00204e-23
-9.28282e-23
-8.49564e-23
-6.73404e-23
-4.18628e-23
-1.64539e-23
-2.62613e-24
-3.34917e-25
2.99331e-23
1.65374e-20
9.82357e-19
1.86221e-17
-7.12053e-28
-3.72491e-27
-4.0951e-26
-2.16988e-25
-5.35464e-25
-9.41892e-25
-1.41392e-24
-1.94368e-24
-2.52128e-24
-3.06841e-24
-3.44415e-24
-3.48898e-24
-3.08259e-24
-2.30844e-24
-1.39026e-24
-5.69782e-25
-9.78879e-26
-9.90791e-27
-1.43493e-44
9.87992e-24
6.79449e-21
3.46365e-19
5.73643e-18
-9.24788e-29
-3.90963e-28
-3.39434e-27
-1.57492e-26
-3.5483e-26
-5.74606e-26
-7.95442e-26
-1.00534e-25
-1.19017e-25
-1.30545e-25
-1.29698e-25
-1.13206e-25
-8.26982e-26
-4.78729e-26
-1.96818e-26
-4.02756e-27
-3.11216e-28
-2.2991e-29
7.41605e-29
1.51448e-24
1.49173e-21
7.72953e-20
1.45467e-18
-1.00196e-29
-3.61388e-29
-2.55997e-28
-1.04592e-27
-2.14814e-27
-3.18937e-27
-4.04761e-27
-4.66654e-27
-4.98989e-27
-4.86498e-27
-4.19744e-27
-3.07177e-27
-1.77914e-27
-7.40041e-28
-1.76477e-28
-1.05611e-29
-6.41267e-31
-9.48185e-33
4.41249e-30
4.47281e-26
1.80226e-22
1.25402e-20
3.68588e-19
-9.46736e-31
-2.99385e-30
-1.76893e-29
-6.38891e-29
-1.19384e-28
-1.61826e-28
-1.8717e-28
-1.95305e-28
-1.86657e-28
-1.5946e-28
-1.17081e-28
-6.97014e-29
-3.04725e-29
-8.28658e-30
-8.84825e-31
-4.36296e-32
-2.16338e-33
1.61965e-33
2.445e-31
3.12606e-28
1.40114e-23
1.68264e-21
8.02995e-20
-8.00588e-32
-2.25304e-31
-1.12794e-30
-3.61073e-30
-6.12467e-30
-7.54715e-30
-7.90939e-30
-7.41185e-30
-6.26497e-30
-4.62138e-30
-2.82662e-30
-1.32431e-30
-4.12744e-31
-6.50351e-32
-2.49834e-33
-9.83883e-35
-3.54413e-36
5.75868e-35
1.51536e-32
5.54167e-29
8.7061e-25
1.72062e-22
1.0626e-20
-6.17305e-33
-1.55848e-32
-6.68703e-32
-1.90034e-31
-2.91871e-31
-3.25565e-31
-3.0741e-31
-2.56766e-31
-1.89972e-31
-1.19224e-31
-5.94112e-32
-2.11323e-32
-4.39784e-33
-3.47882e-34
-1.07441e-35
-3.40384e-37
-2.47104e-39
2.82666e-36
8.998e-33
1.52576e-28
6.46986e-26
1.11359e-23
8.46007e-22
-4.40927e-34
-1.00192e-33
-3.71495e-33
-9.37899e-33
-1.30084e-32
-1.30809e-32
-1.107e-32
-8.18325e-33
-5.24729e-33
-2.76133e-33
-1.09593e-33
-2.84791e-34
-3.67941e-35
-1.29041e-36
-3.10701e-38
-7.67793e-40
3.22813e-40
1.44304e-37
1.45079e-32
2.07277e-28
8.5177e-27
4.33473e-25
4.05816e-23
-2.96082e-35
-6.05013e-35
-1.94915e-34
-4.3717e-34
-5.46115e-34
-4.93238e-34
-3.72365e-34
-2.42094e-34
-1.3334e-34
-5.80431e-35
-1.79438e-35
-3.27322e-36
-2.43126e-37
-4.26977e-39
-7.79256e-41
-1.45779e-42
6.64705e-42
6.14642e-39
8.4347e-33
1.73362e-29
7.38227e-28
8.19484e-27
3.6999e-25
-1.89572e-36
-3.4656e-36
-9.72927e-36
-1.93773e-35
-2.17523e-35
-1.75919e-35
-1.18035e-35
-6.71561e-36
-3.15412e-36
-1.12286e-36
-2.6509e-37
-3.26558e-38
-1.29678e-39
-1.62149e-41
-2.10417e-43
-2.79138e-45
7.71246e-46
1.16123e-42
4.70709e-38
2.4387e-32
4.5669e-30
6.15378e-29
2.19888e-28
-1.17227e-37
-1.89897e-37
-4.64947e-37
-8.21927e-37
-8.27787e-37
-5.98176e-37
-3.55802e-37
-1.76569e-37
-7.03934e-38
-2.03492e-38
-3.62127e-39
-2.92587e-40
-5.88702e-42
-4.72691e-44
-3.84598e-46
-3.10305e-48
-2.49543e-50
-1.99502e-52
7.15515e-43
8.23353e-36
1.3194e-32
3.72294e-31
1.13569e-30
-7.07364e-39
-1.00148e-38
-2.13793e-38
-3.35485e-38
-3.02858e-38
-1.95292e-38
-1.02842e-38
-4.44589e-39
-1.50303e-39
-3.52724e-40
-4.73831e-41
-2.5242e-42
-2.66036e-44
-1.08204e-46
-3.48284e-49
-9.90245e-52
-2.67798e-54
-7.10592e-57
-1.86857e-59
7.24902e-50
3.8673e-43
2.69256e-40
3.62812e-39
0.888177
0.888521
0.941935
0.984717
0.971996
0.982519
0.982439
0.986913
0.983408
0.983418
0.983387
0.984343
0.983702
0.983564
0.983416
0.98339
0.0251632
0.476042
0.750322
0.798777
0.00163028
0.00176747
0.030384
0.0550115
0.00162472
0.00162585
0.00166629
0.00175502
0.00160885
0.00166505
0.00171304
0.00181569
0.00188724
0.0017023
0.00177922
0.00188521
0.106761
0.0164133
0.00889273
0.0104582
0.109741
0.109741
0.109741
0.108341
0.0321475
0.108054
0.107652
0.105626
-1.00267e-05
-1.07896e-05
-4.97297e-07
0.000719115
7.34421e-11
-1.16957e-10
-3.43733e-09
-1.06795e-08
1.08496e-08
9.39106e-09
5.04216e-09
5.29947e-09
3.358e-09
2.92155e-09
1.81943e-09
7.12148e-09
5.47946e-10
5.55318e-10
5.13348e-10
3.06633e-10
1.37899e-10
1.44943e-10
1.44092e-10
1.39334e-10
3.26147e-11
3.4808e-11
3.77489e-11
3.90732e-11
4.65412e-12
5.18728e-12
5.86642e-12
6.76929e-12
3.30556e-13
3.85778e-13
4.70807e-13
6.18473e-13
1.34109e-14
1.53748e-14
1.878e-14
2.604e-14
4.89348e-16
7.03227e-16
1.07142e-15
1.80101e-15
1.891e-16
4.04958e-16
8.65209e-16
1.71904e-15
2.12508e-16
4.56609e-16
1.00699e-15
1.97439e-15
2.38915e-16
5.0648e-16
1.12157e-15
2.15442e-15
2.54664e-16
5.36911e-16
1.18351e-15
2.28396e-15
2.519e-16
5.2944e-16
1.1663e-15
2.34576e-15
2.10963e-16
4.39614e-16
9.72799e-16
2.03125e-15
1.316e-16
2.68765e-16
5.94944e-16
1.18732e-15
5.63576e-17
1.1306e-16
2.48323e-16
4.39207e-16
1.70318e-17
3.50775e-17
7.49975e-17
1.66652e-16
4.67869e-18
1.17429e-17
3.65279e-17
1.56744e-16
1.49393e-18
5.89426e-18
3.34697e-17
1.55368e-16
4.19061e-19
2.47497e-18
3.58204e-17
8.53102e-17
6.43297e-20
5.9983e-19
9.49309e-18
2.17369e-17
6.20734e-21
9.57776e-20
1.73142e-18
2.93797e-18
4.00099e-22
1.05819e-20
1.72981e-19
1.67241e-19
5.50671e-24
1.50435e-22
1.43814e-21
9.95086e-22
1.19227e-27
1.09554e-25
1.37336e-24
6.76504e-25
3.13199e-31
1.20331e-32
7.44096e-36
2.25285e-52
3.09469e-40
6.1849e-43
-5.6247e-43
-1.02458e-39
0.993301
0.957527
0.360619
0.231109
0.297533
0.690553
0.690344
0.539648
0.111453
0.113142
0.58977
0.635964
0.429736
0.0594071
0.0538499
0.0534003
0.073681
0.0549731
0.0549704
0.991078
0.663377
0.231111
0.232265
0.476599
0.690436
0.690138
0.688739
0.230554
0.114752
0.612538
0.647182
0.214821
0.0547143
0.0546079
0.0907076
0.0949985
0.0847218
0.0550334
0.985651
0.742345
0.479186
0.64758
0.721776
0.591761
0.615697
0.688126
0.405357
0.254993
0.658997
0.656902
0.0758501
0.0559331
0.0554215
0.0947619
0.0950326
0.0938136
0.0562864
0.983539
0.936702
0.850419
0.51183
0.10127
0.105485
0.513592
0.685095
0.646789
0.639474
0.659025
0.658618
0.187576
0.0572402
0.0919927
0.0950106
0.0714499
0.0793111
0.0826181
0.790529
0.474021
0.20519
0.0725358
0.0761779
0.328546
0.682613
0.683996
0.682393
0.669608
0.6586
0.654562
0.452213
0.0635281
0.0924395
0.0771001
0.00212822
0.00747342
0.0821734
0.0653864
0.0136494
0.0172336
0.0311167
0.322466
0.67668
0.683179
0.641318
0.414291
0.49803
0.599195
0.297846
0.463785
0.0755139
0.0923209
0.067513
0.00176019
0.00288322
0.0144075
0.00237957
0.00388197
0.00783391
0.0463828
0.45104
0.671564
0.534929
0.131501
0.027691
0.232251
0.105256
0.00422216
0.279164
0.0556609
0.0495711
0.0299922
0.00149877
0.0019513
0.00616934
0.00175024
0.00204331
0.00391266
0.0879175
0.195312
0.113596
0.0152417
0.0161198
0.0242547
0.146489
0.0031533
0.00403451
0.00422216
0.0635391
0.0194582
0.00270991
0.00111231
0.00603409
0.0216676
0.00235157
0.00252699
0.0187618
0.0467721
0.0252816
0.0152417
0.014812
0.0160097
0.0845785
0.026214
0.00225823
0.00359593
0.0172521
0.0723689
0.0689997
0.0203883
0.000770884
0.00626923
0.0216676
0.00344001
0.00441377
0.00729108
0.0144294
0.0177096
0.0149916
0.0282955
0.0664689
0.0850234
0.00296797
0.00156281
0.00290886
0.0438332
0.0723689
0.0725243
0.0662171
0.000445863
0.00577026
0.0216676
0.074395
0.0589218
0.064149
0.0627934
0.0875528
0.0934913
0.095313
0.095313
0.0432058
0.000551281
0.00107523
0.00385543
0.0568374
0.0725243
0.0727315
0.0325094
0.000170076
0.00570805
0.0215295
0.108098
0.108055
0.108079
0.107962
0.107315
0.105508
0.0845501
0.0419022
5.92024e-05
0.000255367
0.000676634
0.005758
0.0155019
0.0449458
0.0447532
0.000155115
2.8797e-05
0.00328112
0.0212534
0.031122
0.0635674
0.061675
0.0566286
0.0465062
0.0146827
1.14595e-06
9.55311e-06
1.52339e-05
0.000677016
0.00135948
0.000261246
0.000897781
0.00207602
0.00131163
2.83672e-05
1.58674e-07
0.000650124
0.021239
-1.32349e-25
4.88546e-10
2.06761e-09
5.79923e-09
1.67881e-08
4.72342e-08
1.50806e-07
1.15489e-06
0.00013548
0.000667966
0.00032502
2.06736e-05
0.000151302
0.000104359
4.73426e-05
-3.74412e-07
-5.33748e-09
8.55064e-05
0.00607159
4.82466e-09
3.04374e-09
9.96341e-09
5.5349e-08
1.41613e-07
8.9169e-08
2.18623e-07
1.64999e-05
0.00010892
9.25061e-05
2.00291e-05
1.4543e-06
4.14166e-06
3.13246e-06
3.35901e-06
3.27916e-22
-9.7326e-10
1.24044e-05
0.000644053
7.71155e-09
3.11197e-09
3.52994e-08
2.31964e-07
2.7247e-07
3.31106e-08
8.73853e-07
1.64433e-05
1.493e-05
4.22494e-06
1.2009e-07
4.44643e-07
1.60753e-06
6.40799e-07
1.12596e-09
7.29436e-10
-2.23617e-09
4.73211e-07
1.22192e-05
1.36972e-09
2.95366e-09
1.92776e-10
1.68268e-10
5.08207e-08
2.28383e-08
6.50623e-10
2.31107e-06
1.32263e-05
3.20967e-07
1.02094e-07
9.96963e-08
2.22779e-07
5.8256e-07
4.9355e-07
2.0208e-08
2.65257e-25
2.75411e-09
3.21905e-07
6.38777e-11
1.1526e-10
2.65443e-10
1.56755e-10
9.46353e-11
9.47533e-11
7.45397e-11
4.28857e-11
4.45911e-06
1.1389e-05
9.53155e-08
8.74484e-08
5.55702e-08
2.24838e-08
1.9529e-08
1.79909e-08
1.22924e-08
1.07503e-08
3.82566e-08
3.66712e-11
4.39899e-11
8.81766e-11
1.11439e-10
9.15549e-11
9.23971e-11
9.52752e-11
3.9364e-11
3.86451e-11
1.19779e-05
4.42064e-06
8.37011e-08
8.07351e-08
8.37042e-08
4.62549e-08
5.60871e-08
2.6692e-08
2.07082e-08
1.28199e-07
7.65822e-12
9.76549e-12
1.59298e-11
2.71525e-11
4.33976e-11
6.42707e-11
1.39947e-10
1.32442e-10
3.33569e-11
3.98203e-06
4.67183e-06
3.5002e-06
2.5722e-07
5.63938e-08
5.54156e-08
5.81834e-08
2.13919e-08
1.62972e-08
9.10208e-08
8.55746e-13
1.28182e-12
2.42586e-12
5.03275e-12
1.1362e-11
2.78195e-11
3.66666e-11
2.84099e-11
2.90112e-11
3.33569e-11
2.77051e-06
3.43825e-06
2.56101e-06
2.83755e-07
5.17566e-08
5.45162e-08
3.81553e-09
3.95614e-09
-1.39607e-06
4.51813e-14
1.03025e-13
3.00134e-13
1.01048e-12
4.54248e-12
1.42019e-11
1.78125e-11
1.76294e-11
9.41724e-10
2.37425e-08
4.60225e-08
1.17141e-06
1.57582e-06
6.32648e-07
4.68879e-08
3.717e-08
2.31977e-09
-3.55827e-07
9.26203e-07
5.51854e-15
3.13958e-14
1.62416e-13
7.74049e-13
5.56301e-12
1.8012e-11
1.76273e-11
1.77613e-11
3.82221e-08
8.66113e-08
8.48646e-08
5.57015e-08
7.90438e-08
6.23978e-08
6.26506e-08
2.291e-08
1.60242e-09
1.10582e-05
0.00025551
6.28393e-15
4.71573e-14
3.16786e-13
1.66262e-12
9.40791e-12
3.9147e-11
3.68996e-11
1.7987e-11
1.9176e-11
8.81297e-08
9.2806e-08
5.65261e-08
3.10575e-09
2.46885e-09
3.93063e-09
1.75594e-09
1.52741e-09
4.64438e-05
0.00302802
7.87846e-15
8.5757e-14
7.54827e-13
4.25305e-12
1.96097e-11
7.56616e-11
1.18736e-10
5.55766e-11
3.90874e-11
1.46803e-08
5.2583e-08
3.59649e-08
4.52316e-09
2.32094e-09
2.66967e-09
1.37387e-09
1.43299e-09
6.42761e-05
0.0042335
9.95165e-15
1.4398e-13
1.3123e-12
7.45432e-12
2.97885e-11
9.27247e-11
2.08687e-10
2.3485e-10
2.24577e-10
2.25596e-10
6.92481e-10
3.8563e-09
2.85495e-09
2.31522e-09
1.87882e-09
1.27567e-09
1.28934e-09
2.04819e-05
0.0042335
1.1964e-14
2.12919e-13
1.74249e-12
9.32891e-12
3.58755e-11
1.10853e-10
2.52469e-10
3.14627e-10
3.10956e-10
3.04298e-10
3.13639e-10
3.59302e-10
7.30866e-10
1.55726e-09
1.75323e-09
1.0944e-09
1.15994e-09
3.64629e-09
0.00423067
1.22804e-14
2.71319e-13
1.74968e-12
1.02206e-11
4.54003e-11
1.40639e-10
2.57197e-10
3.84681e-10
3.15005e-10
3.12561e-10
3.15053e-10
3.99957e-10
5.62778e-10
9.19194e-10
6.61617e-10
6.74204e-10
5.00895e-08
1.28966e-08
0.00418782
9.04107e-15
2.24015e-13
1.11206e-12
1.1537e-11
7.80848e-11
1.71702e-10
2.57761e-10
5.49633e-10
2.25042e-09
3.32186e-09
1.8666e-09
6.28002e-10
6.38059e-10
6.45617e-10
6.53588e-10
1.27373e-08
1.00867e-07
1.8459e-08
0.00410142
5.28702e-15
1.14911e-13
4.90228e-13
9.46797e-12
6.5497e-11
1.70578e-10
2.17558e-10
1.42909e-09
5.544e-09
5.75114e-09
4.45305e-09
1.39534e-09
6.43146e-10
6.53588e-10
6.60277e-10
4.68175e-08
1.00559e-07
1.92378e-08
0.00401967
4.92949e-15
7.11006e-14
3.63556e-13
6.11789e-12
5.66658e-11
4.36407e-10
4.87054e-10
8.8166e-10
2.114e-09
3.59054e-09
8.33671e-09
7.73742e-09
3.20825e-09
6.94913e-10
6.64778e-10
4.58951e-08
1.00864e-07
2.0741e-08
0.00375189
2.20814e-14
2.11622e-13
7.86367e-13
1.00433e-11
1.20464e-10
3.34814e-11
2.79411e-09
9.01471e-10
1.00409e-09
2.02876e-09
1.07395e-08
1.14976e-08
9.09266e-09
9.85503e-10
1.21063e-08
6.43427e-08
5.24847e-08
2.23456e-08
0.00145761
6.57108e-14
6.92513e-13
2.03277e-12
4.08219e-12
4.54878e-11
1.57505e-11
5.77053e-09
3.28708e-08
2.41705e-08
2.02876e-08
1.21349e-08
1.15301e-08
9.14248e-09
2.04532e-09
2.04327e-09
3.79629e-08
3.40961e-08
2.4096e-08
8.39916e-05
9.14559e-14
1.11581e-12
4.01001e-12
6.64574e-12
1.57964e-11
1.56731e-11
1.57505e-11
1.00868e-07
1.40144e-07
6.52671e-08
3.70582e-09
3.0063e-09
3.01663e-09
1.41977e-09
2.00849e-09
1.19728e-09
1.14564e-09
2.33953e-08
1.35844e-06
6.4729e-14
1.12981e-12
5.16507e-12
1.02934e-11
1.57341e-11
1.5655e-11
1.57051e-11
8.85163e-08
2.00478e-07
3.8376e-08
1.32702e-09
1.19443e-09
1.15465e-09
1.15396e-09
1.15465e-09
1.15418e-09
2.84679e-06
1.45581e-07
3.2191e-06
2.6932e-14
6.73658e-13
4.42027e-12
1.12786e-11
2.33296e-11
1.63707e-11
1.6143e-11
2.59246e-08
1.98861e-07
4.88214e-09
2.13925e-09
1.08765e-06
4.96526e-06
2.73275e-06
1.62182e-07
1.19728e-09
2.97147e-05
2.80628e-05
1.22674e-05
5.23816e-15
2.29029e-13
2.54138e-12
1.02684e-11
3.31972e-11
1.02626e-10
9.43036e-11
9.50872e-11
3.7001e-10
1.20003e-06
7.99183e-06
1.61785e-05
1.6242e-05
1.51395e-05
1.09142e-06
1.17766e-08
8.80954e-05
8.65921e-05
1.71121e-05
7.49773e-16
5.41675e-14
9.67605e-13
6.91222e-12
3.45026e-11
2.93195e-10
7.75541e-10
3.84203e-10
3.9909e-10
1.77374e-06
1.62195e-05
1.62447e-05
1.62364e-05
6.92656e-06
4.74576e-07
7.66477e-05
9.5488e-05
8.71304e-05
1.7865e-05
7.35382e-18
1.89898e-15
1.03503e-13
2.07502e-12
1.18694e-11
4.82069e-10
2.10199e-09
1.75424e-09
4.99615e-10
5.18559e-10
5.2748e-06
1.62195e-05
1.51562e-05
1.47806e-06
4.18633e-07
2.21385e-05
8.14289e-05
2.58707e-05
1.93787e-05
3.64104e-22
6.39077e-18
1.67705e-15
1.74682e-13
2.86367e-12
1.01784e-10
2.10437e-09
2.84596e-09
1.41833e-09
5.96415e-10
1.56786e-09
2.6159e-06
1.49452e-06
1.93116e-07
4.12781e-07
4.94966e-10
2.46278e-11
4.77319e-10
7.78091e-05
3.87138e-28
2.40909e-21
1.70289e-17
5.8159e-15
3.63231e-13
9.42557e-12
3.72906e-10
2.13316e-09
1.90895e-09
6.16083e-10
6.46564e-10
1.4029e-09
2.36938e-09
1.90684e-08
1.43448e-08
5.78919e-10
1.68447e-12
1.90974e-13
7.76295e-05
1.17134e-36
4.13953e-29
1.32862e-21
1.86556e-17
6.26694e-15
3.3901e-13
6.10532e-12
2.4786e-10
7.1174e-10
6.12115e-10
6.12115e-10
6.46564e-10
1.91542e-09
1.58952e-09
9.06882e-10
1.53331e-10
7.01642e-12
0
6.57879e-05
)
;

boundaryField
{
    leftWall
    {
        type            zeroGradient;
    }
    rightWall
    {
        type            zeroGradient;
    }
    lowerWall
    {
        type            zeroGradient;
    }
    atmosphere
    {
        type            inletOutlet;
        inletValue      uniform 0;
        value           nonuniform List<scalar> 
46
(
-7.07364e-39
-1.00148e-38
-2.13793e-38
-3.35485e-38
-3.02858e-38
-1.95292e-38
-1.02842e-38
-4.44589e-39
-1.50303e-39
-3.52724e-40
-4.73831e-41
-2.5242e-42
-2.66036e-44
0
0
0
0
0
0
0
0
0
0
0
0
0
0
0
0
0
0
0
0
0
0
7.1174e-10
6.12115e-10
6.12115e-10
6.46564e-10
1.91542e-09
1.58952e-09
9.06882e-10
0
0
0
6.57879e-05
)
;
    }
    defaultFaces
    {
        type            empty;
    }
}


// ************************************************************************* //
