/*--------------------------------*- C++ -*----------------------------------*\
| =========                 |                                                 |
| \\      /  F ield         | OpenFOAM: The Open Source CFD Toolbox           |
|  \\    /   O peration     | Version:  v2012                                 |
|   \\  /    A nd           | Website:  www.openfoam.com                      |
|    \\/     M anipulation  |                                                 |
\*---------------------------------------------------------------------------*/
FoamFile
{
    version     2.0;
    format      ascii;
    class       surfaceScalarField;
    location    "0.9";
    object      alphaPhi0.water;
}
// * * * * * * * * * * * * * * * * * * * * * * * * * * * * * * * * * * * * * //

dimensions      [0 3 -1 0 0 0 0];
oriented        oriented;


internalField   nonuniform List<scalar> 
4432
(
-3.1382e-06
3.1382e-06
-7.03631e-06
3.89811e-06
-1.00776e-05
3.04133e-06
-1.25496e-05
2.47196e-06
-1.47929e-05
2.24326e-06
-1.69202e-05
2.12736e-06
-1.89193e-05
1.99903e-06
-2.07444e-05
1.82517e-06
-2.23591e-05
1.61464e-06
-2.37384e-05
1.37936e-06
-2.48545e-05
1.11606e-06
-2.56619e-05
8.07413e-07
-2.60845e-05
4.22626e-07
-2.60038e-05
-8.06065e-08
-2.53099e-05
-6.93121e-07
-2.34778e-05
-1.48769e-06
-2.04848e-05
-2.4238e-06
-1.69038e-05
-3.67467e-06
-1.19754e-05
-5.02212e-06
-6.16757e-06
-5.90157e-06
-1.00121e-06
-5.26082e-06
1.6234e-06
-2.60668e-06
1.62654e-06
-4.76674e-06
7.90494e-06
-8.57905e-06
7.71042e-06
-1.14673e-05
5.9296e-06
-1.39964e-05
5.00107e-06
-1.63744e-05
4.62126e-06
-1.85819e-05
4.33482e-06
-2.05678e-05
3.98498e-06
-2.22998e-05
3.5571e-06
-2.37689e-05
3.08374e-06
-2.49736e-05
2.5841e-06
-2.5901e-05
2.04345e-06
-2.65185e-05
1.42499e-06
-2.67795e-05
6.83563e-07
-2.6619e-05
-2.41095e-07
-2.5883e-05
-1.42892e-06
-2.43633e-05
-3.00186e-06
-2.1653e-05
-5.03934e-06
-1.76166e-05
-7.57157e-06
-1.25419e-05
-1.02676e-05
-6.77449e-06
-1.1975e-05
-1.43024e-06
-1.08635e-05
1.4503e-06
-5.55502e-06
3.07953e-06
-4.90005e-06
1.2805e-05
-8.29533e-06
1.11057e-05
-1.11412e-05
8.77543e-06
-1.37843e-05
7.64418e-06
-1.62588e-05
7.0958e-06
-1.85215e-05
6.5975e-06
-2.0531e-05
5.99447e-06
-2.227e-05
5.29613e-06
-2.37426e-05
4.55628e-06
-2.4957e-05
3.7985e-06
-2.59072e-05
2.99371e-06
-2.65638e-05
2.08157e-06
-2.6873e-05
9.92814e-07
-2.67534e-05
-3.60716e-07
-2.60727e-05
-2.10961e-06
-2.46432e-05
-4.43141e-06
-2.22063e-05
-7.47621e-06
-1.85171e-05
-1.12608e-05
-1.35348e-05
-1.52499e-05
-7.68264e-06
-1.78272e-05
-2.0999e-06
-1.64462e-05
1.2893e-06
-8.94421e-06
4.36882e-06
-4.68945e-06
1.74944e-05
-7.91545e-06
1.43317e-05
-1.08288e-05
1.16888e-05
-1.35909e-05
1.04063e-05
-1.61544e-05
9.65925e-06
-1.84681e-05
8.91123e-06
-2.04999e-05
8.02625e-06
-2.22444e-05
7.04062e-06
-2.37173e-05
6.02914e-06
-2.49369e-05
5.01809e-06
-2.59041e-05
3.96092e-06
-2.65932e-05
2.77067e-06
-2.69533e-05
1.35298e-06
-2.69088e-05
-4.05227e-07
-2.63448e-05
-2.67358e-06
-2.50838e-05
-5.69247e-06
-2.28671e-05
-9.69286e-06
-1.94109e-05
-1.4717e-05
-1.45838e-05
-2.0077e-05
-8.71455e-06
-2.36965e-05
-2.88665e-06
-2.22741e-05
1.01527e-06
-1.28455e-05
5.38403e-06
-4.42173e-06
2.19162e-05
-7.60764e-06
1.75176e-05
-1.06124e-05
1.46936e-05
-1.34795e-05
1.32733e-05
-1.61189e-05
1.22987e-05
-1.84727e-05
1.12651e-05
-2.05162e-05
1.00697e-05
-2.22557e-05
8.7801e-06
-2.37202e-05
7.49367e-06
-2.49402e-05
6.23813e-06
-2.59254e-05
4.94613e-06
-2.66564e-05
3.50162e-06
-2.70895e-05
1.78611e-06
-2.71605e-05
-3.34263e-07
-2.67708e-05
-3.06325e-06
-2.57533e-05
-6.71004e-06
-2.38412e-05
-1.16049e-05
-2.06822e-05
-1.7876e-05
-1.60145e-05
-2.47447e-05
-1.00739e-05
-2.96372e-05
-3.97887e-06
-2.83693e-05
2.45704e-07
-1.70709e-05
5.63076e-06
-4.16282e-06
2.6079e-05
-7.36277e-06
2.07176e-05
-1.04675e-05
1.77984e-05
-1.34319e-05
1.62377e-05
-1.61379e-05
1.50047e-05
-1.85227e-05
1.36499e-05
-2.0569e-05
1.2116e-05
-2.22958e-05
1.05069e-05
-2.37475e-05
8.94538e-06
-2.49687e-05
7.45933e-06
-2.59795e-05
5.95688e-06
-2.67684e-05
4.29054e-06
-2.73014e-05
2.31904e-06
-2.7528e-05
-1.07664e-07
-2.73681e-05
-3.22309e-06
-2.66667e-05
-7.41149e-06
-2.5144e-05
-1.31276e-05
-2.23531e-05
-2.06669e-05
-1.78594e-05
-2.92383e-05
-1.17992e-05
-3.56973e-05
-5.38705e-06
-3.47812e-05
-7.09766e-07
-2.17519e-05
4.91913e-06
-3.92574e-06
3.00047e-05
-7.16256e-06
2.39544e-05
-1.03726e-05
2.10084e-05
-1.34288e-05
1.92939e-05
-1.61925e-05
1.77684e-05
-1.85995e-05
1.60569e-05
-2.06417e-05
1.41582e-05
-2.23517e-05
1.22169e-05
-2.37905e-05
1.03842e-05
-2.50182e-05
8.68704e-06
-2.60665e-05
7.00514e-06
-2.69331e-05
5.15714e-06
-2.75946e-05
2.98054e-06
-2.8017e-05
3.14735e-07
-2.81427e-05
-3.09738e-06
-2.78322e-05
-7.72191e-06
-2.67923e-05
-1.41674e-05
-2.44511e-05
-2.3008e-05
-2.0148e-05
-3.35407e-05
-1.38955e-05
-4.19487e-05
-6.99863e-06
-4.16776e-05
-1.77016e-06
-2.69841e-05
3.14386e-06
-3.69948e-06
3.37042e-05
-6.98415e-06
2.72391e-05
-1.03032e-05
2.43274e-05
-1.34429e-05
2.24336e-05
-1.62536e-05
2.05791e-05
-1.86751e-05
1.84783e-05
-2.07094e-05
1.61925e-05
-2.2403e-05
1.39105e-05
-2.38336e-05
1.18148e-05
-2.50776e-05
9.93098e-06
-2.61787e-05
8.10627e-06
-2.71451e-05
6.12353e-06
-2.79651e-05
3.80056e-06
-2.86226e-05
9.72228e-07
-2.90921e-05
-2.62791e-06
-2.92495e-05
-7.56441e-06
-2.8795e-05
-1.46216e-05
-2.69988e-05
-2.48027e-05
-2.29293e-05
-3.76057e-05
-1.64428e-05
-4.84295e-05
-8.75359e-06
-4.93623e-05
-2.40253e-06
-3.33819e-05
6.98347e-07
2.46115e-06
-3.55367e-06
-1.76688e-05
2.11277e-05
-4.28093e-05
2.51489e-05
-6.07472e-05
1.78734e-05
-7.00806e-05
9.19561e-06
-7.31443e-05
2.69086e-06
-7.15143e-05
-1.60038e-06
-6.74175e-05
-4.06141e-06
-6.01466e-05
-5.91117e-06
-5.12068e-05
-7.77428e-06
-4.19565e-05
-9.43377e-06
-3.28611e-05
-9.40988e-06
-2.66022e-05
-6.12463e-06
-2.17208e-05
-4.6393e-06
-1.61727e-05
-5.42239e-06
-9.54748e-06
-6.56309e-06
-1.87067e-06
-7.53643e-06
3.48631e-06
-5.13206e-06
3.41807e-06
-1.49848e-05
1.11335e-05
-4.24441e-05
4.87593e-05
-6.13173e-05
4.40348e-05
-6.93614e-05
2.59268e-05
-7.22885e-05
1.21352e-05
-7.23695e-05
2.79572e-06
-7.03901e-05
-3.55485e-06
-6.68287e-05
-7.594e-06
-6.16445e-05
-1.10605e-05
-5.45114e-05
-1.48675e-05
-4.58968e-05
-1.80045e-05
-3.73808e-05
-1.78807e-05
-3.16056e-05
-1.18616e-05
-2.69423e-05
-9.08658e-06
-2.18903e-05
-1.02205e-05
-1.59307e-05
-1.24966e-05
-8.96505e-06
-1.46713e-05
-1.46141e-06
-1.27641e-05
1.99556e-06
-2.73591e-05
3.88467e-05
-4.9528e-05
7.09387e-05
-6.08629e-05
5.53804e-05
-6.57928e-05
3.08673e-05
-6.88971e-05
1.52516e-05
-6.91646e-05
3.08221e-06
-6.69975e-05
-5.67045e-06
-6.36483e-05
-1.09188e-05
-5.90567e-05
-1.56227e-05
-5.25457e-05
-2.13296e-05
-4.44564e-05
-2.60478e-05
-3.64684e-05
-2.58312e-05
-3.18348e-05
-1.64627e-05
-2.92026e-05
-1.16863e-05
-2.64279e-05
-1.29672e-05
-2.19022e-05
-1.71436e-05
-1.53885e-05
-2.20845e-05
-6.98517e-06
-2.16897e-05
-5.56393e-06
-3.07719e-05
6.96306e-05
-4.8978e-05
8.91561e-05
-5.67074e-05
6.31192e-05
-5.97281e-05
3.38987e-05
-5.72718e-05
1.34553e-05
-4.86746e-05
1.53903e-06
-4.39542e-05
-1.28292e-06
-4.43784e-05
-3.06956e-06
-4.8917e-05
-8.37174e-06
-4.76555e-05
-2.06152e-05
-4.05439e-05
-3.30738e-05
-3.28676e-05
-3.34512e-05
-2.94265e-05
-1.98706e-05
-2.84582e-05
-1.26264e-05
-2.7809e-05
-1.35915e-05
-2.6246e-05
-1.86316e-05
-2.17924e-05
-2.63145e-05
-1.23625e-05
-3.26382e-05
-1.84937e-05
-3.04821e-05
0.00010014
-4.52319e-05
0.000103922
-5.01346e-05
6.80619e-05
-3.56164e-05
2.52548e-05
-1.34972e-05
7.09284e-06
-6.93557e-06
4.32574e-07
-6.49117e-06
-1.66607e-06
-7.64218e-06
-1.98637e-06
-9.37792e-06
-2.58354e-06
-1.80987e-05
-6.38576e-06
-2.8731e-05
-1.40251e-05
-2.58571e-05
-3.33823e-05
-2.43175e-05
-2.13459e-05
-2.47117e-05
-1.20731e-05
-2.35149e-05
-9.6147e-06
-2.28508e-05
-1.05665e-05
-2.23861e-05
-1.73214e-05
-1.50396e-05
-3.81198e-05
-3.39101e-05
-2.87796e-05
0.000128956
-4.05434e-05
0.000115738
-4.05866e-05
7.09973e-05
-9.02022e-06
1.57485e-05
-6.01946e-06
3.75164e-06
-5.03301e-06
-7.32375e-07
-3.94684e-06
-2.83038e-06
-3.75039e-06
-2.25838e-06
-4.28724e-06
-2.12484e-06
-4.59099e-06
-6.15037e-06
-7.63046e-06
-1.10294e-05
-8.65188e-06
-2.55145e-05
-1.15008e-05
-7.10895e-06
-9.83167e-06
-4.4419e-06
-5.05948e-06
-5.86981e-07
-4.14361e-06
-1.0154e-06
-6.14147e-06
-2.1504e-06
-1.25799e-05
-7.49507e-06
-4.21002e-05
-2.66901e-05
0.000155702
-3.54595e-05
0.000124593
-3.52185e-05
7.21645e-05
-8.50072e-06
1.59996e-05
-6.91343e-06
4.19447e-06
-3.98908e-06
-6.29546e-06
-2.26359e-06
-6.81119e-06
-2.13277e-06
-2.46735e-06
-2.64892e-06
-1.67705e-06
-3.80155e-06
-5.04937e-06
-2.02524e-06
-1.94392e-05
4.62281e-07
-2.65656e-05
3.14971e-07
-6.4413e-06
-1.89696e-07
-4.57126e-07
-3.98647e-07
-3.8387e-07
-1.0921e-07
-1.31091e-06
1.35887e-07
-2.11583e-06
-1.72135e-06
-2.72004e-06
-3.89026e-06
-2.44493e-05
0.000180248
-2.86628e-05
0.000128918
-1.62595e-05
5.66574e-05
-2.09621e-05
1.38661e-05
-1.50612e-05
7.4303e-06
-1.0392e-05
-1.53929e-05
-2.94369e-06
-2.08436e-05
-9.18539e-07
-6.15537e-06
-1.34892e-06
-1.29828e-06
-2.70797e-06
-4.63265e-06
3.86177e-08
-2.87852e-05
6.39074e-06
-3.69636e-05
1.66535e-06
-1.12242e-05
1.01564e-06
1.31775e-07
5.72911e-07
6.90662e-08
8.48723e-07
-1.60343e-06
1.55363e-06
-2.83593e-06
9.17206e-07
-1.8418e-06
-2.13396e-06
-6.81493e-06
4.05191e-05
-1.42108e-05
3.46349e-05
-2.16321e-05
3.17487e-05
-2.85542e-05
2.93558e-05
-3.46539e-05
2.66788e-05
-3.98363e-05
2.36607e-05
-4.41413e-05
2.04975e-05
-4.77038e-05
1.7473e-05
-5.07422e-05
1.48532e-05
-5.34737e-05
1.26624e-05
-5.60376e-05
1.06702e-05
-5.8493e-05
8.57893e-06
-6.08637e-05
6.1713e-06
-6.31609e-05
3.26947e-06
-6.5523e-05
-2.65683e-07
-6.76752e-05
-5.41121e-06
-6.9124e-05
-1.31679e-05
-6.77088e-05
-2.61943e-05
-6.04539e-05
-4.4798e-05
-4.65249e-05
-6.22909e-05
-2.82284e-05
-6.75931e-05
-7.22965e-06
-5.46705e-05
-2.58223e-05
1.78698e-05
-5.46889e-06
4.5988e-05
-1.30028e-05
4.21688e-05
-2.06246e-05
3.93705e-05
-2.76674e-05
3.63986e-05
-3.38309e-05
3.28423e-05
-3.90482e-05
2.8878e-05
-4.33762e-05
2.48256e-05
-4.69574e-05
2.10542e-05
-5.00605e-05
1.79563e-05
-5.29655e-05
1.55674e-05
-5.58943e-05
1.35989e-05
-5.9008e-05
1.16926e-05
-6.24773e-05
9.64063e-06
-6.64623e-05
7.2546e-06
-7.09594e-05
4.23233e-06
-7.61935e-05
-1.20178e-07
-8.12085e-05
-7.56634e-06
-8.28423e-05
-2.20104e-05
-7.89426e-05
-4.44957e-05
-6.74398e-05
-7.27089e-05
-5.23784e-05
-8.23002e-05
-3.5949e-05
-6.78497e-05
-3.22056e-05
-3.14557e-05
-4.22172e-06
3.86891e-05
-1.02463e-05
3.36974e-05
-1.5877e-05
2.68569e-05
-2.03279e-05
1.98027e-05
-2.32634e-05
1.34642e-05
-2.49491e-05
8.67268e-06
-2.59719e-05
5.52771e-06
-2.67047e-05
3.66826e-06
-2.74959e-05
2.63765e-06
-2.89336e-05
2.12666e-06
-3.09205e-05
1.97695e-06
-3.46336e-05
2.18066e-06
-4.12927e-05
2.75903e-06
-5.10335e-05
3.69205e-06
-6.04643e-05
4.24267e-06
-6.94642e-05
3.49272e-06
-6.92553e-05
1.1652e-06
-6.01525e-05
-5.52961e-06
-6.11064e-05
-2.29042e-05
-6.68886e-05
-5.49124e-05
-5.65242e-05
-4.89505e-05
-5.30074e-05
-2.83925e-05
-2.79351e-05
-7.31509e-05
-1.05278e-06
1.20164e-06
-2.01659e-06
2.08957e-07
-2.67839e-06
9.26855e-08
-2.61165e-06
1.00828e-07
-2.1479e-06
9.48075e-08
-1.66221e-06
7.48009e-08
-1.30952e-06
5.23304e-08
-1.08183e-06
3.31199e-08
-9.68398e-07
1.96718e-08
-1.01221e-06
6.05054e-09
-1.1525e-06
-5.25537e-09
-1.52386e-06
-2.73224e-08
-2.36468e-06
-8.54942e-08
-5.11671e-06
-2.2085e-07
-1.25425e-05
-4.02036e-07
-1.74987e-05
-4.65954e-07
-1.63449e-05
-1.80286e-07
-1.71882e-05
-8.2745e-08
-3.68269e-05
-1.68273e-05
-3.2044e-05
-3.25433e-05
-9.25116e-06
-1.02704e-05
-9.53679e-06
-1.35943e-06
-4.50601e-06
-7.67046e-05
-1.84305e-07
2.32502e-08
-1.12398e-07
5.40531e-09
-1.64702e-07
1.59108e-08
-1.73426e-07
1.66063e-08
-1.5007e-07
1.30215e-08
-1.17923e-07
8.53597e-09
-9.01575e-08
5.01762e-09
-7.1443e-08
2.77621e-09
-6.11117e-08
1.57672e-09
-6.17842e-08
3.89482e-10
-7.42815e-08
-3.87113e-11
-1.1391e-07
-1.30699e-09
-2.29677e-07
-4.08829e-09
-5.2491e-07
-1.16213e-08
-1.0916e-06
-2.00677e-08
-1.9059e-06
-5.17917e-09
-2.81273e-06
8.49145e-08
-1.42858e-05
-9.78682e-08
-2.6754e-05
-1.12718e-05
-1.38675e-05
-2.62293e-05
-1.85039e-06
-5.58663e-06
-1.91861e-06
-1.25148e-06
-3.4613e-07
-6.2172e-06
-8.08935e-09
4.60055e-09
-1.84009e-08
1.06507e-09
-1.96447e-08
2.30877e-09
-1.61184e-08
2.13532e-09
-1.12394e-08
1.44248e-09
-7.26162e-09
8.43134e-10
-4.68556e-09
4.56548e-10
-3.25256e-09
2.43699e-10
-2.50904e-09
1.26459e-10
-2.79289e-09
4.78788e-11
-3.87104e-09
2.88918e-11
-8.25095e-09
9.8141e-11
-2.34155e-08
6.95548e-10
-7.19049e-08
3.53381e-09
-2.00434e-07
1.60893e-08
-4.71103e-07
5.72822e-08
-8.62548e-07
1.19684e-07
-1.89476e-06
-2.14109e-07
-1.5958e-05
-5.7653e-06
-2.8043e-05
-2.02669e-05
-4.61985e-06
-1.30914e-05
-5.82694e-07
-5.42739e-06
-6.71816e-07
-4.34781e-07
-2.12717e-10
6.50783e-10
-1.52083e-09
2.21264e-10
-1.72659e-09
3.2865e-10
-1.30047e-09
2.47706e-10
-8.33454e-10
1.4729e-10
-5.07653e-10
8.01756e-11
-3.16053e-10
4.22525e-11
-2.15466e-10
2.32691e-11
-1.7861e-10
1.14246e-11
-2.20477e-10
9.00254e-12
-3.96798e-10
1.63226e-11
-1.15863e-09
1.03956e-10
-4.35886e-09
5.75874e-10
-1.52963e-08
2.73802e-09
-4.85601e-08
1.12398e-08
-1.25004e-07
3.55853e-08
-1.84677e-07
7.90777e-08
-6.84197e-07
-1.18782e-07
-9.61346e-06
-3.11604e-06
-1.92233e-05
-1.74373e-05
-1.47784e-05
-1.40695e-05
-3.40455e-06
-1.0254e-05
-3.88086e-06
-3.09929e-07
2.94906e-11
8.49045e-11
-8.46608e-11
4.14326e-11
-9.59317e-11
4.59105e-11
-7.2782e-11
2.96775e-11
-4.91374e-11
1.62038e-11
-3.2174e-11
8.35685e-12
-2.13588e-11
4.33056e-12
-1.50826e-11
2.50283e-12
-1.48347e-11
1.38167e-12
-1.95394e-11
1.77814e-12
-4.59841e-11
5.75706e-12
-1.68273e-10
3.78336e-11
-5.89072e-10
1.92309e-10
-2.26364e-09
9.00907e-10
-7.6555e-09
3.13167e-09
-1.49401e-08
7.99977e-09
-1.89504e-08
3.05e-08
-2.58696e-07
2.05144e-08
-7.30093e-06
-1.03481e-06
-2.02318e-05
-1.18726e-05
-1.83352e-05
-1.31066e-05
-1.28193e-05
-1.24461e-05
-4.99463e-06
-5.74829e-07
4.83246e-12
1.10601e-11
-6.58182e-13
6.4943e-12
-1.13889e-12
6.34886e-12
-1.51649e-12
3.79836e-12
-1.78012e-12
1.99122e-12
-1.64113e-12
1.00666e-12
-1.32096e-12
5.08152e-13
-1.00726e-12
2.89053e-13
-1.22939e-12
2.40751e-13
-1.73046e-12
3.78991e-13
-4.97934e-12
1.6132e-12
-1.69183e-11
9.53283e-12
-6.671e-11
4.72107e-11
-4.18994e-10
2.30302e-10
-1.68749e-09
8.0535e-10
-4.86842e-09
1.96449e-09
9.09762e-10
1.75666e-09
2.72286e-08
5.64353e-10
-9.31517e-07
-1.55485e-07
-1.57478e-05
-2.00471e-06
-1.84093e-05
-7.12126e-06
-1.54462e-05
-1.17523e-05
-1.01215e-05
-3.34126e-06
6.83071e-13
1.49072e-12
6.21009e-13
9.71679e-13
7.35433e-13
9.1787e-13
3.88157e-13
5.30731e-13
1.17335e-13
2.72044e-13
-7.60564e-15
1.4301e-13
-4.83173e-14
8.09255e-14
-5.16792e-14
5.3724e-14
-7.72952e-14
6.17909e-14
-1.39449e-13
1.4732e-13
-4.47925e-13
5.51157e-13
-1.7136e-12
2.09064e-12
-9.44698e-12
1.12533e-11
-7.22156e-11
6.45782e-11
-3.14683e-10
3.20239e-10
-8.51079e-10
8.00675e-10
-1.86437e-09
8.4977e-10
-1.47431e-09
-4.2232e-10
-1.52699e-07
-1.02617e-09
-2.03203e-06
-1.80115e-07
-1.46786e-05
-1.90631e-06
-1.72327e-05
-5.06539e-06
-9.40894e-06
-1.41305e-05
9.81187e-14
2.11052e-13
1.29592e-13
1.54615e-13
1.57573e-13
1.45302e-13
9.44486e-14
8.9515e-14
4.30797e-14
4.95482e-14
1.60966e-14
3.02558e-14
4.88699e-15
1.73354e-14
6.69001e-16
1.67906e-14
-1.41995e-15
1.48587e-14
-8.94503e-15
1.42382e-13
-3.64956e-14
3.94244e-13
-1.10164e-13
7.10752e-13
-4.32403e-13
3.05203e-12
4.71555e-12
2.09794e-11
8.61797e-11
9.29538e-11
3.52499e-10
2.2264e-10
6.22851e-10
2.54645e-10
1.0792e-10
4.25475e-11
2.35307e-10
-2.97849e-10
-1.76452e-07
-1.56947e-09
-2.01037e-06
-8.01257e-08
-1.0096e-05
-6.58471e-07
-3.07181e-06
-1.56798e-05
1.3538e-14
3.53551e-14
2.03178e-14
2.95748e-14
2.51093e-14
2.8564e-14
1.62364e-14
1.98897e-14
8.45974e-15
1.0448e-14
3.87502e-15
6.94673e-15
2.34418e-15
4.51819e-15
1.57625e-15
1.17784e-14
1.30426e-15
1.50983e-14
-8.59929e-16
-1.06962e-14
5.72488e-15
2.98937e-14
1.38327e-13
4.54475e-13
1.43808e-12
7.62094e-13
1.0663e-11
4.78829e-12
5.35636e-11
2.06259e-11
1.63713e-10
4.88699e-11
3.00186e-10
5.39601e-11
3.12137e-10
1.30242e-11
1.82082e-10
-4.63743e-11
-6.23865e-10
-8.70865e-11
-8.01627e-08
-8.16636e-11
-7.36614e-07
-1.72374e-09
-2.49083e-08
-3.77926e-06
1.8006e-15
6.28681e-15
2.95119e-15
5.67198e-15
3.68916e-15
5.98875e-15
2.48419e-15
5.59267e-15
1.4088e-15
3.82478e-15
7.67051e-16
2.05921e-15
6.76478e-16
1.77083e-15
2.75882e-16
1.65411e-15
-2.29714e-15
-1.29699e-14
-8.36133e-15
-4.39355e-14
-1.64495e-14
-7.69248e-14
2.02961e-14
3.55404e-14
4.48177e-13
2.42784e-13
3.13432e-12
1.01161e-12
1.45984e-11
3.91515e-12
4.25237e-11
9.21449e-12
7.6735e-11
1.0237e-11
8.3005e-11
3.10518e-12
6.13774e-11
-7.7329e-12
3.37137e-11
-1.20299e-11
2.48097e-12
-1.53428e-12
-1.70926e-09
-7.41146e-12
-3.2459e-12
-2.66117e-08
2.37943e-16
2.09943e-15
4.44511e-16
2.16426e-15
5.89002e-16
1.92307e-15
4.71e-16
1.43316e-15
2.86901e-16
8.6151e-16
1.98478e-16
3.08331e-16
1.19943e-16
5.93886e-16
-9.05389e-16
-3.97779e-15
-3.80137e-15
-1.49727e-14
-1.01794e-14
-3.59451e-14
-2.11145e-14
-6.62687e-14
-2.63587e-14
-7.20733e-14
8.94748e-14
1.02559e-13
6.07009e-13
2.09055e-13
2.94529e-12
5.76531e-13
8.6845e-12
1.50646e-12
1.55366e-11
1.74618e-12
1.74295e-11
6.3783e-13
1.3157e-11
-1.07876e-12
5.75369e-12
-1.81882e-12
4.02339e-12
1.82992e-13
2.39651e-12
-1.87573e-14
-6.75699e-14
9.61453e-14
4.04833e-17
4.26591e-16
8.38422e-17
4.35303e-16
1.04515e-16
3.49941e-16
8.15037e-17
2.19659e-16
4.56232e-17
9.70524e-17
4.59252e-17
2.23161e-16
-1.7225e-16
-7.08521e-16
-1.00177e-15
-3.5645e-15
-3.08574e-15
-9.62274e-15
-7.51015e-15
-2.06494e-14
-1.55145e-14
-3.76188e-14
-2.57681e-14
-5.48746e-14
-1.62618e-14
-3.02164e-14
8.7252e-14
1.04554e-13
4.76406e-13
8.8101e-14
1.46265e-12
2.24162e-13
2.66554e-12
2.85871e-13
3.06441e-12
1.21092e-13
2.38483e-12
-1.18948e-13
1.26838e-12
-2.04563e-13
1.14258e-12
-5.11646e-14
1.45517e-12
-4.34527e-14
1.39015e-13
8.58977e-13
6.1965e-18
4.9245e-17
1.31908e-17
5.0523e-17
1.53198e-17
4.01679e-17
1.11284e-17
2.43006e-17
1.29926e-17
1.07654e-17
-1.1216e-17
-4.78623e-17
-1.69257e-16
-6.02653e-16
-6.4555e-16
-1.9607e-15
-1.77519e-15
-4.66782e-15
-4.13004e-15
-9.48806e-15
-8.46201e-15
-1.70615e-14
-1.52779e-14
-2.70585e-14
-1.94198e-14
-3.01573e-14
-1.42831e-15
-1.93808e-15
5.72101e-14
2.94626e-14
2.09165e-13
3.68543e-14
3.9649e-13
4.18646e-14
4.6969e-13
2.04228e-14
3.91716e-13
-6.18669e-15
2.37979e-13
6.47753e-15
1.88602e-13
1.37773e-14
1.80501e-13
5.25169e-15
6.03728e-15
3.43946e-13
8.09549e-19
5.27225e-18
1.7931e-18
5.59795e-18
1.97651e-18
4.40541e-18
1.59348e-18
2.45486e-18
1.49254e-18
7.11933e-18
-1.61393e-17
-6.16971e-17
-9.42831e-17
-2.98195e-16
-3.08093e-16
-8.24384e-16
-7.99954e-16
-1.83961e-15
-1.81767e-15
-3.63129e-15
-3.70933e-15
-6.48122e-15
-6.92279e-15
-1.06159e-14
-1.07071e-14
-1.44202e-14
-1.00136e-14
-1.18274e-14
7.86668e-15
6.56091e-15
2.56068e-14
8.7781e-15
5.16773e-14
5.60661e-15
6.3133e-14
5.20076e-15
5.77181e-14
5.44897e-15
4.9213e-14
6.24171e-15
4.33671e-14
5.26813e-15
4.49535e-14
4.4165e-15
2.41298e-15
5.84188e-14
9.93669e-20
5.61009e-19
2.23356e-19
6.04565e-19
2.35463e-19
4.63184e-19
3.33428e-19
2.56996e-19
-4.65495e-19
-2.02693e-18
-8.76982e-18
-3.04618e-17
-3.90016e-17
-1.1151e-16
-1.17453e-16
-2.82647e-16
-2.94886e-16
-6.0699e-16
-6.61467e-16
-1.17812e-15
-1.34965e-15
-2.09637e-15
-2.56185e-15
-3.48694e-15
-4.31935e-15
-5.16252e-15
-5.69984e-15
-5.98036e-15
-3.29422e-15
-3.02642e-15
2.87529e-15
2.50754e-15
5.89322e-15
1.75738e-15
7.94978e-15
8.24119e-16
9.39868e-15
1.09507e-15
9.86543e-15
1.15838e-15
1.08062e-14
1.16049e-15
1.30876e-14
1.13173e-15
8.27602e-16
1.49821e-14
1.15658e-20
5.7031e-20
2.61267e-20
6.19955e-20
2.94846e-20
4.54142e-20
3.45961e-20
1.82403e-19
-4.09182e-19
-1.64062e-18
-3.35146e-18
-1.06916e-17
-1.29583e-17
-3.39199e-17
-3.70567e-17
-8.13635e-17
-9.09974e-17
-1.70312e-16
-2.02558e-16
-3.2699e-16
-4.14028e-16
-5.81304e-16
-7.94232e-16
-9.7511e-16
-1.40027e-15
-1.50749e-15
-2.13822e-15
-2.01908e-15
-2.24795e-15
-1.85776e-15
-7.96308e-16
-5.73148e-16
5.40193e-16
4.20879e-16
8.49037e-16
2.73787e-16
1.30101e-15
9.36297e-17
1.73849e-15
1.34009e-16
2.27746e-15
1.67933e-16
2.85875e-15
1.65829e-16
1.42472e-16
3.43824e-15
1.27209e-21
5.48808e-21
2.87396e-21
5.98827e-21
5.1846e-21
4.11615e-21
-2.92838e-22
-1.43246e-21
-1.67473e-19
-6.22824e-19
-1.01409e-18
-2.9967e-18
-3.58435e-18
-8.67328e-18
-9.87119e-18
-1.99848e-17
-2.38325e-17
-4.10145e-17
-5.27388e-17
-7.80562e-17
-1.07981e-16
-1.38606e-16
-2.08561e-16
-2.33476e-16
-3.76891e-16
-3.69062e-16
-6.20382e-16
-5.31644e-16
-8.12881e-16
-6.08331e-16
-6.50133e-16
-4.2275e-16
-1.89708e-16
-1.06279e-16
5.43299e-17
2.97488e-17
9.73658e-17
4.45481e-17
1.8962e-16
6.53096e-18
2.88053e-16
1.09284e-17
3.79465e-16
1.20269e-17
1.09244e-17
4.7465e-16
1.31954e-22
4.99104e-22
2.96636e-22
5.43595e-22
5.12177e-22
3.38127e-22
-2.58443e-21
-1.17946e-20
-5.00201e-20
-1.73651e-19
-2.54644e-19
-7.02041e-19
-8.42149e-19
-1.89844e-18
-2.24798e-18
-4.23102e-18
-5.34445e-18
-8.52842e-18
-1.175e-17
-1.60783e-17
-2.40544e-17
-2.84562e-17
-4.66112e-17
-4.79303e-17
-8.53185e-17
-7.64796e-17
-1.46183e-16
-1.14269e-16
-2.14347e-16
-1.45765e-16
-2.25507e-16
-1.32696e-16
-1.40348e-16
-7.08147e-17
-4.32301e-17
-1.84477e-17
9.70516e-19
3.47495e-19
7.68415e-18
3.00816e-18
1.89892e-17
1.17221e-18
2.67917e-17
4.09071e-19
3.8484e-19
3.36804e-17
1.28733e-23
4.28013e-23
2.86389e-23
4.6252e-23
4.55172e-23
3.25159e-23
-1.04951e-21
-4.49323e-21
-1.20541e-20
-3.92981e-20
-5.43733e-20
-1.40745e-19
-1.70193e-19
-3.59792e-19
-4.41312e-19
-7.77385e-19
-1.03224e-18
-1.53757e-18
-2.24926e-18
-2.86381e-18
-4.58846e-18
-5.03227e-18
-8.88149e-18
-8.4323e-18
-1.63213e-17
-1.34477e-17
-2.85e-17
-2.03762e-17
-4.44366e-17
-2.74883e-17
-5.38533e-17
-2.8648e-17
-4.38344e-17
-1.98525e-17
-2.26221e-17
-8.59207e-18
-7.11263e-18
-2.21643e-18
-7.30858e-19
-1.81101e-19
5.94945e-19
1.09064e-19
1.09031e-18
1.4707e-19
8.00769e-21
1.4306e-18
1.17638e-24
3.45088e-24
3.29383e-24
3.68215e-24
3.70945e-24
2.09945e-23
-2.81384e-22
-1.13664e-21
-2.44255e-21
-7.52216e-21
-1.00173e-20
-2.44915e-20
-2.98351e-20
-5.95023e-20
-7.5117e-20
-1.2457e-19
-1.72405e-19
-2.41064e-19
-3.70894e-19
-4.41684e-19
-7.50386e-19
-7.66423e-19
-1.44295e-18
-1.26951e-18
-2.64048e-18
-2.0046e-18
-4.62768e-18
-3.02887e-18
-7.43699e-18
-4.1804e-18
-9.75591e-18
-4.67541e-18
-9.1487e-18
-3.69484e-18
-5.83691e-18
-1.95254e-18
-2.57805e-18
-6.96665e-19
-7.88413e-19
-1.6603e-19
-1.39029e-19
-2.16774e-20
7.61435e-21
4.25795e-22
1.25651e-22
4.29654e-20
1.00183e-25
2.60636e-25
3.53862e-25
2.7277e-25
-4.27709e-25
-2.29238e-24
-5.92974e-23
-2.27418e-22
-4.25257e-22
-1.24468e-21
-1.60749e-21
-3.73423e-21
-4.56366e-21
-8.63584e-21
-1.11316e-20
-1.74739e-20
-2.49698e-20
-3.29401e-20
-5.27639e-20
-5.90352e-20
-1.05236e-19
-1.00474e-19
-1.99689e-19
-1.63238e-19
-3.60752e-19
-2.52671e-19
-6.2628e-19
-3.75037e-19
-1.01385e-18
-5.16325e-19
-1.38435e-18
-5.94056e-19
-1.40376e-18
-5.00412e-19
-1.00058e-18
-2.90151e-19
-5.12418e-19
-1.17225e-19
-1.96264e-19
-3.38595e-20
-5.75311e-20
-6.99737e-21
-1.2594e-20
-9.76898e-22
4.35953e-23
8.96443e-21
7.90982e-27
1.83577e-26
2.77451e-26
1.83853e-26
-2.61121e-25
-1.33524e-24
-1.04143e-23
-3.81829e-23
-6.44425e-23
-1.80425e-22
-2.26157e-22
-5.02232e-22
-6.11734e-22
-1.1047e-21
-1.4405e-21
-2.15195e-21
-3.14201e-21
-3.92975e-21
-6.48117e-21
-6.84182e-21
-1.26513e-20
-1.13284e-20
-2.3498e-20
-1.78848e-20
-4.15049e-20
-2.68305e-20
-7.04533e-20
-3.85304e-20
-1.12635e-19
-5.17172e-20
-1.55314e-19
-5.91419e-20
-1.63107e-19
-5.05625e-20
-1.22481e-19
-3.0072e-20
-6.70589e-20
-1.25138e-20
-2.80394e-20
-3.72968e-21
-9.37453e-21
-7.98606e-22
-2.51374e-21
-1.12001e-22
6.44616e-23
8.20446e-21
5.75303e-28
1.19368e-27
1.96615e-27
1.51097e-27
-6.52574e-26
-3.21025e-25
-1.56721e-24
-5.53445e-24
-8.572e-24
-2.31167e-23
-2.80281e-23
-5.9886e-23
-7.20902e-23
-1.24985e-22
-1.63146e-22
-2.33237e-22
-3.4396e-22
-4.09899e-22
-6.87607e-22
-6.87767e-22
-1.30261e-21
-1.09745e-21
-2.34566e-21
-1.66527e-21
-4.00564e-21
-2.3895e-21
-6.55545e-21
-3.26445e-21
-1.01493e-20
-4.17246e-21
-1.37475e-20
-4.58641e-21
-1.44133e-20
-3.80253e-21
-1.08858e-20
-2.18334e-21
-6.01719e-21
-8.61624e-22
-2.5501e-21
-2.33452e-22
-8.69547e-22
-4.01027e-23
-1.70156e-22
-1.41286e-24
-1.0002e-22
8.37849e-21
5.07678e-29
7.03522e-29
1.27176e-28
9.52366e-28
-1.18239e-26
-5.64634e-26
-2.05281e-25
-7.03916e-25
-1.00684e-24
-2.63475e-24
-3.07082e-24
-6.35642e-24
-7.48775e-24
-1.25435e-23
-1.62e-23
-2.2295e-23
-3.27893e-23
-3.74303e-23
-6.3008e-23
-5.99851e-23
-1.14729e-22
-9.12547e-23
-1.98078e-22
-1.31399e-22
-3.22758e-22
-1.77563e-22
-5.01093e-22
-2.26278e-22
-7.35361e-22
-2.68128e-22
-9.50426e-22
-2.7287e-22
-9.58135e-22
-2.0834e-22
-6.9472e-22
-1.07399e-22
-3.66288e-22
-3.58925e-23
-1.46636e-22
-6.97559e-24
-4.54979e-23
-1.76883e-25
2.31697e-22
-3.88753e-24
-2.67033e-22
8.17642e-21
3.95999e-30
8.5556e-30
-5.73872e-30
-4.21178e-29
-1.73597e-27
-8.12385e-27
-2.36413e-26
-7.93962e-26
-1.04892e-25
-2.68472e-25
-2.9829e-25
-6.02618e-25
-6.86893e-25
-1.1196e-24
-1.4124e-24
-1.88338e-24
-2.72398e-24
-2.9962e-24
-4.98592e-24
-4.54077e-24
-8.63163e-24
-6.5065e-24
-1.41051e-23
-8.76038e-24
-2.1594e-23
-1.09464e-23
-3.12006e-23
-1.27076e-23
-4.23199e-23
-1.35118e-23
-5.04419e-23
-1.21461e-23
-4.67531e-23
-7.96539e-24
-3.07245e-23
-3.28958e-24
-1.43314e-23
-7.2263e-25
-4.88323e-24
-2.33662e-27
-4.71831e-25
-5.37605e-26
2.21898e-22
-8.63994e-24
-3.98324e-22
7.34701e-21
2.01033e-31
2.9751e-30
-3.69915e-30
-2.68974e-29
-2.15786e-28
-9.99393e-28
-2.41081e-27
-8.00206e-27
-9.72663e-27
-2.45584e-26
-2.57509e-26
-5.1186e-26
-5.57542e-26
-8.9104e-26
-1.08262e-25
-1.40892e-25
-1.97341e-25
-2.10549e-25
-3.40643e-25
-2.98501e-25
-5.53898e-25
-3.97477e-25
-8.44136e-25
-4.92035e-25
-1.19224e-24
-5.56305e-25
-1.56641e-24
-5.71445e-25
-1.90342e-24
-5.22856e-25
-2.00309e-24
-3.89078e-25
-1.60604e-24
-1.9607e-25
-8.77275e-25
-5.03477e-26
-3.16517e-25
5.29117e-31
-6.77692e-26
-8.36434e-29
2.23833e-24
-1.01979e-25
1.99844e-22
-1.20281e-23
-3.8796e-22
5.58014e-21
-1.94929e-32
-2.90482e-31
-7.2412e-31
-5.27392e-30
-2.3234e-29
-1.07595e-28
-2.18853e-28
-7.24983e-28
-8.05216e-28
-2.0243e-27
-1.97991e-27
-3.90711e-27
-4.01099e-27
-6.33967e-27
-7.30509e-27
-9.35516e-27
-1.24764e-26
-1.3012e-26
-2.00913e-26
-1.7057e-26
-3.02734e-26
-2.07947e-26
-4.23074e-26
-2.32162e-26
-5.39533e-26
-2.31477e-26
-6.26451e-26
-2.02884e-26
-6.55124e-26
-1.5099e-26
-5.73287e-26
-8.42364e-27
-3.61869e-26
-2.60422e-27
-1.39525e-26
-6.75472e-29
-2.63638e-27
6.56227e-31
5.38128e-27
-1.35766e-28
1.9435e-24
-1.26348e-25
1.44627e-22
-1.02781e-23
-2.38352e-22
3.15892e-21
-6.67186e-33
-1.01296e-31
-1.00338e-31
-7.403e-31
-2.19738e-30
-1.02873e-29
-1.77624e-29
-5.93537e-29
-5.96656e-29
-1.50917e-28
-1.35852e-28
-2.68875e-28
-2.56172e-28
-4.04444e-28
-4.34498e-28
-5.52845e-28
-6.88967e-28
-7.08816e-28
-1.02309e-27
-8.48493e-28
-1.40751e-27
-9.31768e-28
-1.76957e-27
-9.17966e-28
-1.98646e-27
-7.8285e-28
-1.96737e-27
-5.59017e-28
-1.67835e-27
-3.12452e-28
-1.11716e-27
-1.09783e-28
-4.67843e-28
-9.00509e-30
-7.91809e-29
1.5392e-32
-1.06586e-29
-3.39193e-34
2.07434e-27
-9.1513e-29
1.18407e-24
-7.84848e-26
7.14552e-23
-4.94656e-24
-9.20595e-23
1.2298e-21
-1.05066e-33
-1.64534e-32
-1.12188e-32
-8.48854e-32
-1.84265e-31
-8.82875e-31
-1.2934e-30
-4.41308e-30
-3.96656e-30
-1.02167e-29
-8.33457e-30
-1.6742e-29
-1.45497e-29
-2.32152e-29
-2.28144e-29
-2.91723e-29
-3.32682e-29
-3.41346e-29
-4.49976e-29
-3.68261e-29
-5.56169e-29
-3.57886e-29
-6.15615e-29
-3.03572e-29
-5.90344e-29
-2.13531e-29
-4.76972e-29
-1.17009e-29
-3.08241e-29
-4.35208e-30
-1.34872e-29
-6.39833e-31
-2.46199e-30
2.90387e-34
-2.63578e-31
6.90931e-35
4.68515e-32
-4.5984e-34
5.98127e-28
-1.99161e-29
4.2573e-25
-2.29446e-26
2.19398e-23
-1.36368e-24
-2.67649e-23
3.29873e-22
-1.22905e-34
-2.01398e-33
-1.06277e-33
-8.36624e-33
-1.37906e-32
-6.86156e-32
-8.47396e-32
-2.9955e-31
-2.37077e-31
-6.30861e-31
-4.58037e-31
-9.47233e-31
-7.36179e-31
-1.20392e-30
-1.05926e-30
-1.38006e-30
-1.40664e-30
-1.45869e-30
-1.71071e-30
-1.39893e-30
-1.86686e-30
-1.18044e-30
-1.77582e-30
-8.38655e-31
-1.40417e-30
-4.65934e-31
-8.74532e-31
-1.8098e-31
-3.84694e-31
-3.64587e-32
-8.38003e-32
1.46007e-36
-6.86062e-33
1.3922e-36
-5.34614e-34
3.99559e-38
4.30193e-33
-5.32793e-35
7.97363e-29
-7.34873e-31
8.11316e-26
-3.32415e-27
4.25821e-24
-2.53679e-25
-7.5171e-24
7.35707e-23
-1.18123e-35
-2.06391e-34
-8.73474e-35
-7.28591e-34
-9.25251e-34
-4.86838e-33
-5.00635e-33
-1.86674e-32
-1.27625e-32
-3.57119e-32
-2.25881e-32
-4.89372e-32
-3.32429e-32
-5.6685e-32
-4.35675e-32
-5.88174e-32
-5.2166e-32
-5.5577e-32
-5.62841e-32
-4.67092e-32
-5.32294e-32
-3.35345e-32
-4.23589e-32
-1.93519e-32
-2.64931e-32
-8.06474e-33
-1.18258e-32
-1.99171e-33
-3.00911e-33
-1.37884e-34
-1.9114e-34
5.17437e-38
-1.226e-35
6.90324e-39
-1.90653e-37
-9.12527e-39
1.90908e-34
-3.39382e-36
2.02385e-30
-5.2785e-33
8.42588e-27
-2.89257e-28
5.98272e-25
-3.76091e-26
-1.84258e-24
1.65579e-23
-9.68677e-37
-1.85329e-35
-6.30616e-36
-5.71157e-35
-5.57977e-35
-3.17866e-34
-2.67107e-34
-1.0747e-33
-6.19719e-34
-1.86411e-33
-1.00121e-33
-2.32185e-33
-1.3421e-33
-2.43715e-33
-1.59045e-33
-2.27162e-33
-1.70003e-33
-1.89897e-33
-1.60497e-33
-1.37835e-33
-1.28972e-33
-8.24095e-34
-8.3351e-34
-3.73409e-34
-3.92764e-34
-1.09764e-34
-1.1437e-34
-1.47382e-35
-1.29978e-35
2.6659e-40
-6.78351e-37
2.01142e-40
-3.54226e-38
1.42363e-41
9.39545e-38
-6.76308e-40
8.93879e-36
-1.71264e-37
1.1959e-32
-5.54325e-34
5.55117e-28
-1.9143e-29
6.83378e-26
-4.19091e-27
-2.73421e-25
3.13529e-24
-6.88002e-38
-1.49839e-36
-4.02139e-37
-4.08976e-36
-3.02719e-36
-1.92544e-35
-1.28797e-35
-5.7548e-35
-2.71738e-35
-9.03066e-35
-3.99459e-35
-1.01824e-34
-4.85294e-35
-9.6322e-35
-5.16335e-35
-8.00513e-35
-4.87821e-35
-5.85991e-35
-3.97334e-35
-3.61976e-35
-2.65727e-35
-1.76254e-35
-1.35013e-35
-6.04307e-36
-4.53004e-36
-1.16457e-36
-7.63096e-37
-6.6352e-38
-3.11312e-38
8.96038e-42
-1.29403e-39
9.31312e-43
-4.89338e-41
1.15438e-44
1.74321e-39
-3.62417e-41
4.62256e-37
-7.76372e-38
1.76418e-33
-1.23066e-33
2.86714e-29
-1.43633e-30
5.81323e-27
-2.90704e-28
-2.35451e-26
3.48284e-25
-4.23528e-39
-1.113e-37
-2.26515e-38