/*--------------------------------*- C++ -*----------------------------------*\
| =========                 |                                                 |
| \\      /  F ield         | OpenFOAM: The Open Source CFD Toolbox           |
|  \\    /   O peration     | Version:  v2012                                 |
|   \\  /    A nd           | Website:  www.openfoam.com                      |
|    \\/     M anipulation  |                                                 |
\*---------------------------------------------------------------------------*/
FoamFile
{
    version     2.0;
    format      ascii;
    class       volScalarField;
    location    "0.9";
    object      epsilon;
}
// * * * * * * * * * * * * * * * * * * * * * * * * * * * * * * * * * * * * * //

dimensions      [0 2 -3 0 0 0 0];


internalField   nonuniform List<scalar> 
2268
(
0.0129634
0.0318841
0.0489063
0.0646253
0.0791833
0.0930773
0.106679
0.119947
0.132601
0.144291
0.154728
0.163782
0.171604
0.178895
0.186851
0.19557
0.206319
0.216836
0.222713
0.21592
0.181314
0.109315
0.0275502
0.0183781
0.027037
0.0350755
0.042198
0.0487143
0.0546935
0.0602114
0.0652682
0.0698239
0.0738122
0.0771728
0.0799081
0.0821582
0.0843058
0.0870307
0.0906471
0.0958231
0.102653
0.109696
0.112701
0.104167
0.0766062
0.0414163
0.0254973
0.0269152
0.0332877
0.0390286
0.0440073
0.0483244
0.0521476
0.0555753
0.0586485
0.0613681
0.0637355
0.065815
0.0678032
0.0700995
0.073329
0.0782259
0.0857429
0.0963908
0.108976
0.118827
0.117313
0.0946864
0.0626602
0.0308231
0.0274495
0.0333882
0.0387537
0.0431421
0.0467576
0.0498667
0.0526391
0.0551639
0.0574788
0.0596222
0.0617062
0.0639953
0.0669876
0.0714827
0.0785766
0.0896558
0.105713
0.125668
0.143857
0.149174
0.128001
0.0841652
0.0347764
0.0281534
0.0340528
0.039327
0.0434039
0.0466069
0.049303
0.0517227
0.0539902
0.0561687
0.0583257
0.0606221
0.06341
0.0673407
0.0734962
0.0834493
0.0992533
0.12264
0.152706
0.182333
0.197224
0.179797
0.115092
0.037593
0.0288788
0.0349431
0.0402298
0.044094
0.0469969
0.0494072
0.0516076
0.0537484
0.0559114
0.0581907
0.0608031
0.0642138
0.0692885
0.0775142
0.0911529
0.113268
0.146684
0.190606
0.235576
0.263881
0.257701
0.18438
0.0394138
0.0295476
0.0359312
0.0412611
0.0449397
0.047591
0.0497818
0.0518363
0.0539228
0.056136
0.058598
0.0615936
0.0657361
0.0721853
0.0829872
0.101409
0.131964
0.178883
0.240817
0.304097
0.347956
0.364804
0.356417
0.0402822
0.0301026
0.0369284
0.0422881
0.045779
0.048207
0.0502251
0.0521858
0.0542659
0.0565702
0.0592532
0.0626864
0.0676749
0.0757689
0.0897756
0.114372
0.156021
0.220351
0.303579
0.384667
0.440324
0.485257
0.794977
0.484344
0.609529
0.856227
1.07371
1.23905
1.35841
1.46808
1.57301
1.64998
1.67783
1.58907
1.35129
1.04153
0.86065
0.779896
0.711295
0.602561
0.382034
0.11435
0.600724
0.804121
0.767126
0.717089
0.708367
0.710273
0.728269
0.754841
0.773738
0.775605
0.74015
0.646693
0.519033
0.441108
0.407875
0.386369
0.34894
0.266532
0.103507
0.809814
0.792707
0.689663
0.647472
0.639713
0.636953
0.649058
0.666101
0.680919
0.695177
0.690781
0.62443
0.482159
0.381936
0.338629
0.318516
0.29355
0.2406
0.129945
0.955141
0.779762
0.681768
0.66972
0.668269
0.665357
0.680652
0.691375
0.696107
0.721713
0.755199
0.722939
0.542766
0.391049
0.318524
0.288227
0.263667
0.225442
0.149106
1.06518
0.778456
0.710668
0.735379
0.758236
0.786678
0.838083
0.824998
0.78187
0.798425
0.870291
0.88571
0.672419
0.453352
0.33368
0.287192
0.25731
0.217772
0.152842
1.14448
0.781712
0.754326
0.82726
0.922421
1.12935
1.18854
1.10495
0.969977
0.931249
1.03307
1.09452
0.87515
0.586343
0.404274
0.340648
0.312378
0.232939
0.15906
1.19495
0.781959
0.793686
0.932519
1.14441
1.24853
1.20917
1.16234
1.03473
1.0195
1.11529
1.21657
1.11117
0.806912
0.554747
0.540784
0.56309
0.340387
0.178152
1.21806
0.773523
0.799159
0.984486
1.17882
1.19916
1.14759
1.09344
1.02137
1.0233
1.08174
1.19746
1.22081
0.999358
0.761012
0.774801
0.78407
0.575969
0.260869
0.0393738
0.0306513
0.0383032
0.043646
0.0468361
0.048969
0.0507983
0.0526922
0.0548256
0.0573184
0.060392
0.0645941
0.0711199
0.0822772
0.102161
0.137774
0.198108
0.288537
0.397236
0.490803
0.545854
0.58849
0.668334
0.0383748
0.0307947
0.0388953
0.0441268
0.0471211
0.0491453
0.0509767
0.0529594
0.0552582
0.0580351
0.0616678
0.0671141
0.0765313
0.0941841
0.127387
0.186841
0.285083
0.419867
0.557453
0.64149
0.660814
0.682631
0.7247
0.0380084
0.030313
0.0384875
0.0438279
0.0469373
0.0490539
0.0509725
0.0530582
0.0555087
0.0585752
0.0629088
0.0702599
0.0848419
0.115075
0.17349
0.273631
0.419302
0.594741
0.737846
0.763343
0.73532
0.781276
0.918092
0.0377834
0.0296702
0.0379389
0.0436561
0.047158
0.0494996
0.0515008
0.0536249
0.0561806
0.0595645
0.0647586
0.0747873
0.0987269
0.159851
0.281874
0.445237
0.640508
0.825525
0.889971
0.803745
0.752888
0.877191
1.11758
0.0604742
0.030436
0.0386467
0.0444968
0.0484688
0.0518442
0.0560051
0.0620756
0.0711638
0.0849107
0.106046
0.141575
0.209208
0.32998
0.488877
0.671905
0.856651
0.953673
0.860551
0.709409
0.65995
0.865073
1.21713
0.065051
0.0370563
0.0431422
0.0480804
0.0532977
0.059402
0.0681971
0.0819368
0.104459
0.143097
0.210169
0.323531
0.498026
0.713847
0.873887
0.903766
0.903883
0.876801
0.712171
0.585951
0.550884
0.59382
0.953023
0.0721114
0.0442222
0.0466893
0.0504769
0.0557978
0.0633424
0.0749842
0.093698
0.125097
0.179368
0.271384
0.414478
0.602529
0.786981
0.879361
0.843926
0.785741
0.729577
0.602284
0.5443
0.532563
0.551689
0.650283
0.0853121
0.0518448
0.0510615
0.0537425
0.0585365
0.0661424
0.0784073
0.0985855
0.132892
0.192108
0.290949
0.440221
0.627275
0.796759
0.871248
0.837207
0.78438
0.703391
0.599487
0.56767
0.569494
0.594275
0.647105
0.100017
0.0589188
0.0556296
0.057066
0.0607502
0.0672317
0.0782357
0.0969061
0.129018
0.184207
0.275304
0.411719
0.58298
0.741093
0.818214
0.812304
0.838811
0.943382
0.721619
0.632881
0.627968
0.656387
0.704563
0.11328
0.0650729
0.0598619
0.060122
0.0626267
0.0676062
0.0765397
0.0921625
0.119296
0.165722
0.241715
0.355473
0.501287
0.644885
0.730779
0.746713
0.804467
1.04339
1.1842
0.762226
0.708053
0.715866
0.757985
0.124128
0.0699025
0.0631834
0.0625532
0.0641734
0.0679104
0.0748309
0.0871079
0.108577
0.145178
0.204626
0.293782
0.410963
0.535263
0.626207
0.661587
0.709641
0.912681
1.32377
1.38637
0.831471
0.786615
0.784234
0.132628
0.0732787
0.0653829
0.0641651
0.0652419
0.068145
0.0735768
0.0831648
0.099734
0.127631
0.172561
0.239993
0.330412
0.431896
0.517987
0.567976
0.610826
0.735037
1.029
1.45699
1.6549
0.986713
0.828238
0.139012
0.0753815
0.0665688
0.0649865
0.0657847
0.0682161
0.0726707
0.0803093
0.093171
0.11435
0.147894
0.197835
0.265424
0.344594
0.419765
0.475193
0.518303
0.592266
0.756318
1.04827
1.45903
1.81981
1.6462
0.143449
0.0764545
0.0669335
0.0651304
0.0658183
0.0680319
0.0719108
0.0782407
0.0884573
0.104723
0.129842
0.166666
0.216533
0.276673
0.338581
0.39183
0.43531
0.48623
0.575073
0.731244
0.971369
1.27847
1.54626
0.146073
0.0767076
0.0666586
0.0647227
0.0653894
0.0675332
0.0711037
0.0766005
0.08501
0.0978223
0.116954
0.144385
0.181271
0.226529
0.275773
0.322704
0.364158
0.405312
0.45931
0.541382
0.662052
0.81939
0.99189
0.147022
0.0763071
0.065897
0.0638813
0.0645621
0.0667028
0.0701163
0.0750928
0.0822938
0.0927338
0.107716
0.128602
0.156312
0.190549
0.22916
0.268565
0.305906
0.341739
0.380703
0.429333
0.492549
0.570527
0.658403
0.146477
0.0753874
0.0647733
0.0627117
0.06341
0.0655619
0.0688857
0.0735242
0.0799096
0.0887264
0.100858
0.117241
0.138576
0.1649
0.195212
0.227553
0.259883
0.291378
0.323063
0.357152
0.395484
0.438239
0.484511
0.144667
0.0740663
0.0633932
0.0613096
0.0620127
0.0641601
0.0674089
0.0718004
0.0776089
0.085293
0.0954514
0.108729
0.125649
0.146365
0.170446
0.196843
0.224231
0.251592
0.278631
0.305652
0.332959
0.360415
0.388096
0.141849
0.072456
0.061851
0.0597634
0.0604524
0.0625665
0.0657263
0.0699054
0.0752708
0.0821289
0.0908863
0.101989
0.11582
0.132557
0.152037
0.173703
0.196722
0.220231
0.24357
0.26631
0.28808
0.308523
0.327929
0.138294
0.0706659
0.060233
0.0581552
0.0588107
0.0608601
0.063905
0.0678756
0.0728675
0.0790849
0.086806
0.0963412
0.107968
0.121849
0.137938
0.155941
0.175329
0.195448
0.215627
0.235235
0.253679
0.270521
0.28604
0.134272
0.0688003
0.0586182
0.0565603
0.0571654
0.0591216
0.0620245
0.0657774
0.0704294
0.0761169
0.0830327
0.091395
0.101406
0.113197
0.126773
0.141972
0.158453
0.175734
0.193242
0.210363
0.226496
0.241216
0.254729
0.130043
0.066955
0.0570773
0.0550459
0.0555872
0.0574274
0.0601649
0.0636883
0.0680167
0.0732424
0.0795015
0.0869507
0.0957377
0.105967
0.117659
0.130721
0.144925
0.159918
0.175242
0.190371
0.20478
0.218098
0.230458
0.125846
0.0652142
0.0556709
0.0536691
0.0541365
0.0558443
0.0583994
0.0616839
0.0656986
0.0705074
0.0762096
0.0829212
0.0907531
0.0997871
0.110049
0.121481
0.133927
0.147126
0.160721
0.174287
0.187392
0.199729
0.211367
0.121885
0.063648
0.0544479
0.0524753
0.0528617
0.0544259
0.0567881
0.0598288
0.0635387
0.0679639
0.0731805
0.079278
0.0863433
0.0944429
0.103602
0.113788
0.124888
0.136709
0.148975
0.161351
0.173488
0.185136
0.196317
0.118325
0.0623109
0.053444
0.051497
0.0517969
0.0532113
0.0553752
0.058172
0.0615871
0.0656562
0.0704412
0.0760153
0.0824507
0.0898042
0.098103
0.107328
0.117402
0.12818
0.139449
0.150946
0.162394
0.173582
0.1845
0.115286
0.0612415
0.0526822
0.0507537
0.0509631
0.0522244
0.0541892
0.0567454
0.0598771
0.0636145
0.0680109
0.0731304
0.0790366
0.0857821
0.0933967
0.101875
0.111164
0.121158
0.131694
0.142563
0.153543
0.164455
0.175261
0.112845
0.060464
0.0521739
0.0502539
0.0503689
0.0514764
0.0532441
0.0555658
0.0584266
0.0618539
0.0658969
0.0706145
0.0760663
0.0823042
0.0893624
0.0972476
0.105929
0.11533
0.125328
0.135759
0.146441
0.157217
0.168061
0.111048
0.0599901
0.0519217
0.0499972
0.0500144
0.0509688
0.0525434
0.0546385
0.0572409
0.0603775
0.0640954
0.0684512
0.0735031
0.0793046
0.0858955
0.0932941
0.101488
0.110428
0.120023
0.130145
0.140643
0.151418
0.16241
0.109916
0.0598234
0.0519227
0.0499793
0.0498952
0.0506984
0.0520852
0.0539621
0.0563184
0.0591811
0.0625964
0.0666198
0.07131
0.0767225
0.0829034
0.0898822
0.0976635
0.10622
0.11549
0.125374
0.135787
0.146623
0.157817
0.109462
0.0599659
0.0521747
0.0501963
0.0500077
0.050662
0.051867
0.0535345
0.055656
0.0582589
0.0613889
0.0651007
0.0694536
0.0745055
0.0803083
0.0869013
0.0943043
0.10251
0.111481
0.121179
0.131523
0.142427
0.153829
0.109713
0.0604261
0.0526818
0.0506513
0.0503546
0.0508626
0.0518916
0.0533579
0.0552548
0.0576096
0.0604671
0.0638811
0.0679106
0.0726153
0.0780515
0.084267
0.0912943
0.0991437
0.107825
0.117312
0.12755
0.138479
0.150048
0.110734
0.0612294
0.053463
0.0513606
0.0509507
0.0513134
0.0521712
0.0534435
0.0551246
0.0572411
0.0598358
0.0629608
0.0666734
0.0710336
0.0761005
0.081928
0.0885584
0.0960329
0.104376
0.113584
0.123636
0.134497
0.14614
0.112655
0.062432
0.0545615
0.0523608
0.0518275
0.0520421
0.0527304
0.0538139
0.0552866
0.0571733
0.0595136
0.0623559
0.0657544
0.0697672
0.0744537
0.0798717
0.0860751
0.0931225
0.10105
0.109881
0.119624
0.130281
0.141851
0.115701
0.0641364
0.0560544
0.0537142
0.0530357
0.0530908
0.0536058
0.0545023
0.0557728
0.0574383
0.0595335
0.062101
0.065189
0.0688509
0.0731438
0.0781258
0.083864
0.0904159
0.0978341
0.106165
0.115449
0.125722
0.137022
0.120228
0.0665092
0.0580613
0.05551
0.0546425
0.0545112
0.0548392
0.0555461
0.05662
0.0580758
0.0599403
0.062247
0.0650348
0.0683487
0.0722402
0.0767667
0.0819919
0.087977
0.0947853
0.102482
0.111133
0.120813
0.131599
0.126738
0.0697946
0.060744
0.0578558
0.0567177
0.056349
0.0564636
0.0569735
0.0578581
0.0591222
0.0607812
0.0628552
0.0653686
0.0683521
0.0718468
0.0759027
0.0805761
0.0859294
0.0920315
0.0989592
0.1068
0.115657
0.125648
0.135852
0.0743073
0.0642851
0.0608487
0.059305
0.0586179
0.0584783
0.0587807
0.0594885
0.0605915
0.0620893
0.0639842
0.0662786
0.0689787
0.072104
0.0756887
0.0797846
0.0844533
0.0897654
0.0958026
0.102664
0.110471
0.119372
0.14816
0.0803703
0.0688269
0.0645211
0.062377
0.061262
0.0608175
0.0609033
0.0614566
0.0624471
0.0638569
0.0656679
0.067852
0.0703713
0.0731916
0.0763283
0.0798361
0.0837817
0.0882374
0.0932844
0.0990217
0.105576
0.113111
0.163909
0.0881554
0.074353
0.0687578
0.0657795
0.0641178
0.0633207
0.0631888
0.0636218
0.0645677
0.0659966
0.0678784
0.070155
0.0727101
0.0753515
0.0780871
0.0810049
0.0841977
0.0877471
0.0917311
0.0962395
0.101388
0.107332
0.182532
0.0973971
0.0805123
0.0732001
0.0691841
0.0668908
0.0657191
0.0653835
0.0657382
0.0667151
0.0682922
0.0704664
0.0731981
0.0762655
0.0789424
0.0813229
0.0836318
0.086035
0.0886364
0.0915102
0.0947292
0.0983848
0.102601
0.202034
0.106943
0.086402
0.0771691
0.0720759
0.0691698
0.0676575
0.0671541
0.0674688
0.0685294
0.0703567
0.0730662
0.0768501
0.0816343
0.0845744
0.0865327
0.0881362
0.0896779
0.0912849
0.0930205
0.0949335
0.0970813
0.0995434
0.217896
0.114123
0.0904075
0.0796784
0.0738142
0.0704952
0.0687639
0.0681582
0.0684568
0.0695926
0.0716479
0.0749533
0.0804277
0.090574
0.0933143
0.0943617
0.0950009
0.0955528
0.0961054
0.0966879
0.0973176
0.0980134
0.0988032
1.14546
0.718123
0.602226
0.991291
0.768032
0.815235
0.832068
0.837279
1.03399
1.06273
1.03372
0.989412
1.23259
1.27667
1.28661
1.25033
1.32566
1.33439
1.33044
1.29574
1.38451
1.39122
1.41361
1.36051
1.06739
1.24457
1.31288
1.30783
0.893742
1.20528
1.32553
1.38834
0.820918
1.03126
1.20095
1.34959
0.811487
0.8499
0.895248
0.92601
0.814961
0.830822
0.845164
0.859218
0.825642
0.819981
0.823826
0.827545
1.00087
0.858987
0.845532
0.829946
1.52472
1.45715
1.38126
1.25844
1.11944
1.21307
1.2787
1.26771
0.72926
0.787262
0.840881
0.880486
0.521768
0.553486
0.588098
0.623123
0.410227
0.429395
0.451399
0.476123
0.343164
0.356267
0.371356
0.388445
0.29793
0.307877
0.319099
0.331461
0.264873
0.273073
0.282057
0.291644
0.239621
0.2468
0.254459
0.262418
0.219949
0.22651
0.233373
0.240374
0.20456
0.210749
0.21714
0.223591
0.192572
0.198552
0.204686
0.210869
0.183296
0.189204
0.195249
0.201341
0.176187
0.182119
0.188182
0.194303
0.170706
0.176727
0.182884
0.189116
0.166333
0.172485
0.178784
0.18518
0.162584
0.168883
0.175345
0.181929
0.159024
0.165458
0.172076
0.178844
0.155277
0.161806
0.168546
0.175466
0.151047
0.157601
0.164395
0.171404
0.146127
0.152603
0.15935
0.16635
0.140415
0.146677
0.15324
0.160094
0.133936
0.139816
0.146021
0.15255
0.126861
0.13217
0.137813
0.143799
0.119527
0.124071
0.128936
0.134137
0.112438
0.116049
0.119936
0.124121
0.106241
0.108805
0.111577
0.114573
0.101669
0.103158
0.104769
0.106512
0.0994839
0.0999586
0.100471
0.101022
0.927267
0.748578
0.790015
0.940241
1.05437
1.04785
1.04287
1.01025
0.993321
1.03994
1.06861
1.14182
1.18462
1.08056
0.958148
1.07008
0.938622
0.664647
0.533323
0.82778
0.809192
0.848211
0.865024
0.827287
0.865697
0.912463
0.944029
1.0331
1.1983
1.14178
1.14959
1.21568
1.18927
1.34384
1.51615
1.03067
0.699658
0.705574
0.96902
1.00742
0.960804
0.872973
0.865896
0.941774
0.973079
1.03071
1.22093
1.37423
1.21804
1.22763
1.38388
1.4919
1.62861
1.59059
0.935047
0.629225
0.445322
1.17715
1.10044
1.00463
1.06515
1.16678
1.11566
1.09381
1.18999
1.3923
1.41806
1.23895
1.31666
1.66451
1.79605
1.8034
1.71655
0.864712
0.529705
0.305485
1.21682
1.1197
1.23374
1.37642
1.27599
1.17878
1.18435
1.30956
1.43112
1.32516
1.17978
1.37315
1.80673
1.96603
1.93618
2.16004
1.24415
0.627123
0.424389
1.26733
1.28149
1.44654
1.27857
1.2053
1.16283
1.22699
1.34775
1.37911
1.13429
1.09085
1.4111
1.83584
2.02949
1.96954
2.41821
2.33835
1.46634
0.703584
1.29194
1.329
1.33819
1.2401
1.13818
1.1477
1.24484
1.37451
1.18888
0.91369
1.02414
1.59517
1.88277
2.09573
2.00963
2.59461
3.39734
4.06542
1.39641
1.45478
1.56395
1.4163
1.19353
1.112
1.15483
1.23979
1.16534
0.794163
0.775695
0.881633
1.78228
2.05263
2.3316
2.19536
2.67282
4.07775
5.88978
1.44075
1.53999
1.58909
1.39426
1.17634
1.11151
1.06699
0.966718
0.776007
0.69696
0.725837
0.933945
1.70035
2.10228
2.24851
2.20719
2.52974
4.29989
7.96624
1.50993
0.974313
1.03992
1.06748
1.06418
0.944361
0.847458
0.770402
0.715369
0.677275
0.725381
1.26397
1.67356
1.82255
2.03048
2.10114
2.37246
4.12457
9.92342
1.59817
0.878099
0.89236
0.901636
0.887739
0.835772
0.787768
0.746438
0.708434
0.689205
0.857714
1.47682
1.65076
1.70987
1.85727
1.9956
2.39695
5.26651
10.6636
1.62219
0.827575
0.822154
0.822503
0.811526
0.784654
0.75787
0.733007
0.713113
0.768083
1.41032
1.55639
1.6549
1.73918
1.83938
2.01646
2.66672
8.16419
9.37745
1.52303
0.811112
0.791736
0.78901
0.77887
0.764836
0.758795
0.751274
0.800834
1.39844
1.53234
1.66467
1.842
1.96009
2.06901
2.46862
4.70332
10.7136
6.80673
1.38369
0.89605
0.814128
0.80497
0.790348
0.783013
0.830199
1.02865
1.29866
1.52035
1.64416
1.87842
2.33027
2.77007
3.26784
4.05987
6.21277
8.59435
4.67484
1.31918
1.13413
1.01489
0.962532
0.916206
0.960787
1.09486
1.29787
1.48937
1.62087
1.74059
1.98764
2.38274
2.84674
3.41784
4.24212
5.41606
5.19576
3.55234
1.32757
0.921011
0.965902
0.979043
0.978148
1.05551
1.20996
1.39907
1.56887
1.68054
1.77063
1.9211
2.17003
2.48724
2.86195
3.2828
3.50409
3.42066
3.02276
1.57773
0.680629
0.749801
0.80744
0.86669
0.972904
1.14091
1.33428
1.50367
1.61502
1.68078
1.7489
1.85816
2.00275
2.16568
2.318
2.48322
2.65437
2.78103
2.7606
0.520714
0.578604
0.640855
0.716558
0.825949
0.97685
1.15211
1.31483
1.42869
1.4895
1.52049
1.54761
1.58564
1.64742
1.75819
1.99806
2.30717
2.66274
3.68547
0.419661
0.461243
0.511157
0.577109
0.669351
0.791539
0.9335
1.07214
1.1811
1.24565
1.27193
1.2751
1.28202
1.33033
1.4771
1.76155
2.1317
2.5932
4.16415
0.353629
0.382598
0.418428
0.46755
0.536408
0.627338
0.734617
0.843992
0.937444
1.00164
1.03537
1.04696
1.06584
1.13772
1.32095
1.6323
2.03225
2.55204
4.31565
0.308322
0.329154
0.354326
0.388822
0.437223
0.50151
0.578848
0.660915
0.736243
0.795701
0.836906
0.865708
0.909148
1.01177
1.22124
1.54988
1.96908
2.52527
4.17224
0.275896
0.291941
0.310309
0.33469
0.368445
0.413332
0.468236
0.52864
0.587733
0.641133
0.686475
0.730062
0.795624
0.92236
1.14877
1.48657
1.91888
2.49191
3.70704
0.252042
0.265482
0.279973
0.298202
0.322653
0.354838
0.394579
0.439715
0.486827
0.534178
0.580836
0.634125
0.714871
0.856289
1.08957
1.42634
1.86223
2.42182
2.93711
0.234291
0.246479
0.259027
0.273897
0.292941
0.31742
0.347625
0.382719
0.42179
0.463936
0.510378
0.568996
0.658062
0.805171
1.03535
1.35957
1.7853
2.28813
1.9069
0.221119
0.232877
0.244674
0.257967
0.274143
0.294246
0.318776
0.347756
0.381209
0.419351
0.464795
0.525523
0.617392
0.762832
0.981764
1.28404
1.68708
2.14296
1.4665
0.211474
0.2233
0.235059
0.247843
0.262706
0.280494
0.301769
0.327019
0.356641
0.391764
0.435743
0.496255
0.586807
0.725191
0.927822
1.20375
1.57835
2.04925
1.3194
0.204536
0.216735
0.22887
0.241767
0.256225
0.272923
0.29243
0.315316
0.342331
0.375103
0.417267
0.475894
0.562295
0.690558
0.874042
1.12286
1.46977
1.95122
1.23783
0.199591
0.212354
0.225107
0.23847
0.253043
0.269353
0.287917
0.309319
0.334503
0.365324
0.405376
0.460939
0.541302
0.657525
0.820594
1.04257
1.36164
1.83995
1.19126
0.195983
0.209426
0.222938
0.236974
0.25196
0.268293
0.286401
0.306863
0.330694
0.359783
0.397485
0.449195
0.522377
0.625591
0.767766
0.963243
1.25196
1.70936
1.16648
0.193101
0.207288
0.221642
0.236473
0.252059
0.268665
0.286629
0.306497
0.329272
0.356754
0.391942
0.439338
0.504813
0.59493
0.717169
0.886081
1.14082
1.5566
1.15842
0.190381
0.205332
0.220572
0.236278
0.252591
0.269646
0.287685
0.307198
0.329119
0.355087
0.387689
0.430585
0.488297
0.565808
0.669331
0.812235
1.0298
1.38878
1.17357
0.187318
0.203007
0.219141
0.235776
0.252916
0.270564
0.288856
0.3082
0.329431
0.353983
0.384027
0.42246
0.472694
0.538461
0.624797
0.743095
0.923062
1.2251
1.23469
0.183473
0.199818
0.216811
0.234399
0.252449
0.270824
0.289533
0.308884
0.329584
0.352854
0.380462
0.414644
0.457912
0.513013
0.583943
0.680056
0.826102
1.08159
1.41943
0.178477
0.195321
0.213078
0.231599
0.25062
0.269857
0.289154
0.308699
0.329054
0.351223
0.376609
0.406885
0.443833
0.489423
0.546774
0.623575
0.74157
0.969173
1.76094
0.172052
0.189135
0.207462
0.226821
0.246834
0.267058
0.287138
0.307103
0.327353
0.348676
0.372145
0.398959
0.430312
0.467547
0.513018
0.573115
0.667674
0.8739
1.87198
0.164032
0.180954
0.199513
0.219486
0.24042
0.261723
0.282826
0.303511
0.323994
0.344827
0.366779
0.390675
0.417244
0.447295
0.48253
0.528274
0.603043
0.787653
1.82498
0.154418
0.170608
0.188846
0.20899
0.230598
0.252987
0.275382
0.297214
0.318447
0.339323
0.360273
0.38184
0.404553
0.428768
0.455454
0.489044
0.548606
0.713754
1.72747
0.143446
0.158151
0.175244
0.194775
0.21647
0.239714
0.263637
0.287229
0.310068
0.331779
0.352369
0.372282
0.392016
0.411708
0.431758
0.455745
0.503636
0.656657
1.63202
0.131672
0.144016
0.158862
0.17654
0.19714
0.220425
0.245783
0.272013
0.298086
0.321941
0.343023
0.361817
0.379012
0.394752
0.408846
0.425064
0.466039
0.617118
1.56268
0.12001
0.129165
0.140538
0.154694
0.172179
0.193493
0.219018
0.248825
0.281683
0.310064
0.332604
0.350497
0.364893
0.375767
0.381941
0.386969
0.424336
0.595326
1.55884
0.109679
0.115117
0.122043
0.130998
0.142716
0.158353
0.180058
0.212385
0.260567
0.297368
0.322551
0.339565
0.35032
0.353893
0.345673
0.323848
0.349421
0.53257
1.64741
0.102018
0.103737
0.105947
0.108852
0.11278
0.118445
0.128097
0.151643
0.238328
0.287132
0.315563
0.332129
0.339532
0.334797
0.304353
0.205181
0.197573
0.27936
1.55685
)
;

boundaryField
{
    leftWall
    {
        lowReCorrection 0;
        blending        stepwise;
        n               2;
        type            epsilonWallFunction;
        value           nonuniform List<scalar> 
50
(
0.0129634
0.0183781
0.0254973
0.0308231
0.0347764
0.037593
0.0394138
0.0402822
0.0393738
0.0383748
0.0380084
0.0377834
0.0604742
0.065051
0.0721114
0.0853121
0.100017
0.11328
0.124128
0.132628
0.139012
0.143449
0.146073
0.147022
0.146477
0.144667
0.141849
0.138294
0.134272
0.130043
0.125846
0.121885
0.118325
0.115286
0.112845
0.111048
0.109916
0.109462
0.109713
0.110734
0.112655
0.115701
0.120228
0.126738
0.135852
0.14816
0.163909
0.182532
0.202034
0.217896
)
;
    }
    rightWall
    {
        lowReCorrection 0;
        blending        stepwise;
        n               2;
        type            epsilonWallFunction;
        value           nonuniform List<scalar> 
50
(
0.11435
0.103507
0.129945
0.149106
0.152842
0.15906
0.178152
0.260869
0.533323
0.705574
0.445322
0.305485
0.424389
0.703584
1.39641
1.44075
1.50993
1.59817
1.62219
1.52303
1.38369
1.31918
1.32757
1.57773
2.7606
3.68547
4.16415
4.31565
4.17224
3.70704
2.93711
1.9069
1.4665
1.3194
1.23783
1.19126
1.16648
1.15842
1.17357
1.23469
1.41943
1.76094
1.87198
1.82498
1.72747
1.63202
1.56268
1.55884
1.64741
1.55685
)
;
    }
    lowerWall
    {
        lowReCorrection 0;
        blending        stepwise;
        n               2;
        type            epsilonWallFunction;
        value           nonuniform List<scalar> 
62
(
0.0129634
0.0318841
0.0489063
0.0646253
0.0791833
0.0930773
0.106679
0.119947
0.132601
0.144291
0.154728
0.163782
0.171604
0.178895
0.186851
0.19557
0.206319
0.216836
0.222713
0.21592
0.181314
0.109315
0.0275502
0.0275502
0.0414163
0.0626602
0.0841652
0.115092
0.18438
0.356417
0.794977
1.14546
0.718123
0.602226
0.991291
0.484344
0.600724
0.809814
0.955141
1.06518
1.14448
1.19495
1.21806
0.484344
0.609529
0.856227
1.07371
1.23905
1.35841
1.46808
1.57301
1.64998
1.67783
1.58907
1.35129
1.04153
0.86065
0.779896
0.711295
0.602561
0.382034
0.11435
)
;
    }
    atmosphere
    {
        type            inletOutlet;
        inletValue      uniform 0.1;
        value           nonuniform List<scalar> 
46
(
0.217896
0.114123
0.0904075
0.0796784
0.0738142
0.0704952
0.0687639
0.0681582
0.0684568
0.0695926
0.0716479
0.0749533
0.0804277
0.1
0.1
0.1
0.1
0.1
0.1
0.1
0.1
0.1
0.1
0.1
0.1
0.1
0.1
0.1
0.1
0.1
0.1
0.1
0.1
0.1
0.1
0.238328
0.287132
0.315563
0.332129
0.339532
0.334797
0.304353
0.1
0.1
0.1
1.55685
)
;
    }
    defaultFaces
    {
        type            empty;
    }
}


// ************************************************************************* //
