/*--------------------------------*- C++ -*----------------------------------*\
| =========                 |                                                 |
| \\      /  F ield         | OpenFOAM: The Open Source CFD Toolbox           |
|  \\    /   O peration     | Version:  v2012                                 |
|   \\  /    A nd           | Website:  www.openfoam.com                      |
|    \\/     M anipulation  |                                                 |
\*---------------------------------------------------------------------------*/
FoamFile
{
    version     2.0;
    format      ascii;
    class       volScalarField;
    location    "0.9";
    object      k;
}
// * * * * * * * * * * * * * * * * * * * * * * * * * * * * * * * * * * * * * //

dimensions      [0 2 -2 0 0 0 0];


internalField   nonuniform List<scalar> 
2268
(
0.00256542
0.00381561
0.00508125
0.00612472
0.00701827
0.00782097
0.00856801
0.00926549
0.00990611
0.0104796
0.0109794
0.0114065
0.0117743
0.0121214
0.0125118
0.0129456
0.0134716
0.0139719
0.0142586
0.0139585
0.012363
0.00870485
0.00345106
0.00436924
0.00783939
0.010458
0.0126191
0.0144014
0.0159322
0.0173102
0.0185754
0.0197334
0.0207777
0.0217046
0.0225237
0.023264
0.0239808
0.0247453
0.0256705
0.0268442
0.0282099
0.0293314
0.029178
0.0262788
0.0191834
0.00749564
0.0054487
0.0103473
0.0137725
0.016541
0.0187842
0.0206737
0.0223413
0.0238503
0.0252205
0.0264523
0.0275471
0.0285213
0.0294173
0.0303125
0.0313261
0.0326083
0.0342811
0.0362678
0.0379784
0.0380638
0.0346228
0.0257459
0.00989644
0.0061977
0.0121606
0.0162282
0.0194562
0.0220229
0.0241421
0.0259804
0.0276268
0.0291169
0.0304604
0.0316642
0.032753
0.0337839
0.03486
0.036145
0.0378361
0.0401008
0.0428651
0.0454343
0.0461705
0.0426829
0.0323644
0.012055
0.00673351
0.0135651
0.0182056
0.021824
0.0246421
0.0269223
0.0288723
0.0306082
0.0321819
0.0336113
0.0349088
0.036108
0.037284
0.0385705
0.0401852
0.0423947
0.0454469
0.0493199
0.0532474
0.0552689
0.0523683
0.040924
0.0148096
0.00711205
0.0146931
0.0198698
0.0238294
0.0268443
0.0292367
0.0312603
0.033058
0.0346962
0.0361999
0.0375866
0.0389004
0.0402391
0.0417772
0.0438047
0.0466966
0.0508379
0.0563253
0.0623344
0.0664757
0.0650011
0.0532211
0.0201972
0.00736315
0.015615
0.0213064
0.0255606
0.0287233
0.0311888
0.0332582
0.0350995
0.0367908
0.0383625
0.0398374
0.0412728
0.0427963
0.0446404
0.0471898
0.0509896
0.0566351
0.0644005
0.0733179
0.0803121
0.08092
0.0702805
0.0311303
0.0074982
0.0163726
0.0225567
0.0270543
0.0303188
0.0328259
0.0349218
0.0367952
0.0385328
0.0401687
0.0417323
0.0432981
0.0450332
0.0472463
0.0504582
0.0554527
0.0631158
0.0738933
0.0863864
0.0964007
0.0989272
0.0908024
0.052957
0.0230706
0.0267469
0.0335111
0.0390368
0.0430539
0.0459181
0.0485018
0.050859
0.0525625
0.0532101
0.0513179
0.0459219
0.0382407
0.0334412
0.0311837
0.0292786
0.0262447
0.0194763
0.0110014
0.0468638
0.0628694
0.0651176
0.0696805
0.0762976
0.0817389
0.0867037
0.0913234
0.0956098
0.0986283
0.0976378
0.0889785
0.0733447
0.0623985
0.0571114
0.0534335
0.0480568
0.0378932
0.0145651
0.0573111
0.0786484
0.0821471
0.0899761
0.0966645
0.101093
0.106024
0.111371
0.117038
0.122664
0.124855
0.116555
0.0938911
0.0752374
0.0649137
0.0583144
0.0509876
0.0395148
0.0169474
0.0640104
0.0898011
0.0959516
0.10531
0.110637
0.114412
0.120055
0.125746
0.131374
0.139492
0.147065
0.143186
0.114222
0.0864011
0.0691915
0.0586264
0.0490779
0.0373355
0.0185309
0.068887
0.0982171
0.107321
0.117883
0.123512
0.130182
0.140228
0.145259
0.14745
0.156385
0.169356
0.17192
0.138209
0.100792
0.0750149
0.0598731
0.0477487
0.0351401
0.0189408
0.07237
0.104217
0.116565
0.13026
0.143478
0.170268
0.181684
0.182181
0.178985
0.182393
0.199277
0.205767
0.168667
0.122352
0.0875599
0.0674339
0.0531767
0.0356185
0.0196469
0.0746678
0.107856
0.123416
0.143566
0.17075
0.187253
0.188286
0.190958
0.191818
0.204545
0.225296
0.234656
0.206377
0.15313
0.110227
0.0929742
0.081961
0.0472422
0.0213591
0.0758862
0.109027
0.125518
0.151858
0.177735
0.185528
0.184191
0.184261
0.191931
0.211198
0.226658
0.241014
0.236449
0.190554
0.145947
0.124741
0.111073
0.0798081
0.0316797
0.00744154
0.017334
0.024227
0.0290128
0.032371
0.034908
0.0370299
0.0389467
0.0407525
0.0424861
0.0441909
0.045979
0.0480989
0.0510043
0.0554264
0.0625475
0.0736274
0.0889674
0.105854
0.118312
0.121378
0.116317
0.10199
0.00733102
0.0178879
0.0252333
0.0301929
0.0336284
0.0362291
0.0384281
0.0404367
0.0423494
0.0442179
0.0461257
0.0482826
0.051149
0.0555735
0.0628656
0.0747025
0.0927456
0.115771
0.137869
0.149773
0.147084
0.137179
0.121342
0.00726362
0.0178688
0.0253509
0.0304479
0.0340039
0.0366954
0.0389678
0.0410454
0.0430391
0.045029
0.047168
0.0498478
0.0539531
0.0611043
0.0734541
0.0929345
0.119322
0.149386
0.174094
0.178349
0.166496
0.154594
0.147223
0.00719033
0.017531
0.0250686
0.030355
0.0341223
0.0369514
0.039286
0.0413893
0.0434182
0.0454957
0.0478373
0.051077
0.0569711
0.0696169
0.0927474
0.122707
0.157647
0.192737
0.212409
0.199742
0.182106
0.170606
0.171121
0.00890259
0.0178851
0.0254772
0.0308596
0.0349099
0.0383848
0.0420532
0.0463899
0.0514596
0.0569965
0.0626037
0.0688342
0.0791205
0.0986932
0.126608
0.161893
0.20341
0.234264
0.226044
0.202678
0.188611
0.182506
0.178636
0.0101704
0.0199398
0.0279973
0.0338847
0.03948
0.0453939
0.0524595
0.0613227
0.0725966
0.0871669
0.106155
0.130871
0.161729
0.195304
0.219538
0.226769
0.23266
0.235245
0.213275
0.192028
0.185134
0.190266
0.208606
0.0108381
0.0213759
0.0296663
0.0360724
0.0425399
0.0498869
0.0589998
0.0707287
0.0861075
0.106527
0.133277
0.166032
0.200597
0.228173
0.238392
0.230986
0.223984
0.219549
0.199658
0.188563
0.185937
0.189252
0.202877
0.0120182
0.0233578
0.0317682
0.038528
0.045368
0.0532683
0.0631853
0.0761164
0.0933264
0.116384
0.146524
0.182801
0.219457
0.245659
0.251851
0.241621
0.232229
0.219402
0.201326
0.19529
0.195872
0.200987
0.210657
0.0133483
0.0257095
0.034238
0.0411023
0.047845
0.0555244
0.0651667
0.0778694
0.0949433
0.117886
0.147791
0.183743
0.220403
0.247333
0.254983
0.248378
0.2505
0.26639
0.224146
0.209776
0.209728
0.216278
0.226394
0.0145372
0.0281123
0.0368396
0.0437151
0.0501857
0.0572855
0.0660764
0.0776642
0.0933077
0.114344
0.141721
0.174807
0.20949
0.237214
0.248855
0.246457
0.253569
0.291793
0.306709
0.234626
0.227404
0.230385
0.239919
0.0154966
0.0302418
0.0392485
0.0461681
0.0524259
0.0589795
0.0667838
0.076899
0.0905288
0.108839
0.132628
0.161586
0.192897
0.220302
0.235992
0.238732
0.244595
0.279016
0.340332
0.339382
0.250209
0.245767
0.247116
0.016239
0.0319704
0.041273
0.0482877
0.0544424
0.0606103
0.0676289
0.0764314
0.0880518
0.103512
0.12355
0.148096
0.175329
0.200882
0.218843
0.226684
0.232477
0.253966
0.302852
0.363296
0.378754
0.278596
0.255855
0.0167926
0.0332979
0.0428667
0.050006
0.0561528
0.0621037
0.0685781
0.0763623
0.0863206
0.0993063
0.11596
0.136344
0.159346
0.18213
0.200586
0.212001
0.219321
0.232216
0.261187
0.308777
0.366625
0.405499
0.377468
0.017179
0.0342546
0.0440404
0.0513107
0.0575115
0.0633762
0.0695189
0.0765863
0.0852806
0.0962941
0.110161
0.12701
0.146195
0.165953
0.183579
0.196775
0.205961
0.215482
0.231694
0.259211
0.298451
0.343517
0.377401
0.0174138
0.034876
0.0448253
0.0522156
0.0584991
0.0643598
0.0703249
0.0769221
0.0847115
0.0942439
0.105955
0.119997
0.136017
0.152946
0.169064
0.182646
0.193156
0.202117
0.212638
0.227817
0.24921
0.275789
0.303578
0.0175109
0.035201
0.0452614
0.052749
0.0591178
0.0650135
0.0708954
0.0771958
0.084359
0.0928185
0.102925
0.114832
0.128362
0.142879
0.157306
0.170432
0.18151
0.190798
0.199536
0.209315
0.221269
0.235598
0.251776
0.0174856
0.035271
0.0453928
0.0529481
0.0593869
0.0653248
0.0711695
0.0772796
0.0840097
0.0917003
0.100632
0.110949
0.122576
0.135139
0.147968
0.160239
0.171277
0.180859
0.189311
0.19728
0.20537
0.213924
0.223257
0.0173555
0.0351286
0.0452665
0.0528566
0.0593393
0.0653062
0.0711254
0.0771004
0.0835179
0.0906476
0.0987143
0.107849
0.118032
0.129048
0.140478
0.151771
0.162385
0.171969
0.180447
0.187963
0.194735
0.200982
0.207151
0.01714
0.0348163
0.0449305
0.0525227
0.059019
0.0649903
0.0707747
0.076635
0.0828072
0.0895083
0.0969201
0.105158
0.114234
0.124026
0.134271
0.144597
0.154592
0.163907
0.172314
0.179716
0.1861
0.191552
0.196477
0.0168597
0.0343762
0.0444332
0.0519978
0.058477
0.064424
0.0701539
0.0758988
0.0818579
0.0882093
0.0951021
0.102637
0.110842
0.119652
0.128899
0.138327
0.147629
0.156498
0.16467
0.171947
0.178202
0.183433
0.187964
0.0165352
0.0338492
0.0438229
0.0513346
0.0577689
0.0636635
0.0693155
0.0749341
0.0806916
0.0867375
0.0931966
0.100157
0.107655
0.115657
0.124056
0.132675
0.14128
0.149617
0.157433
0.164503
0.170658
0.17585
0.180323
0.0161871
0.0332754
0.0431467
0.0505854
0.0569518
0.0627694
0.068321
0.0737991
0.0793559
0.0851204
0.0911993
0.0976705
0.104573
0.111894
0.119565
0.12746
0.135403
0.143186
0.150584
0.157384
0.163412
0.168601
0.173127
0.0158352
0.0326925
0.0424495
0.0498007
0.0560813
0.0618022
0.0672347
0.0725586
0.0779119
0.0834084
0.0891417
0.0951818
0.101568
0.108302
0.11534
0.122592
0.129923
0.137167
0.144134
0.150634
0.156507
0.161684
0.166283
0.015497
0.0321346
0.0417721
0.0490267
0.0552092
0.060819
0.0661183
0.0712775
0.0764241
0.0816614
0.0870735
0.0927244
0.0986541
0.104872
0.111353
0.118033
0.12481
0.131552
0.138101
0.144299
0.150004
0.15515
0.159814
0.0151879
0.0316307
0.0411498
0.0483039
0.054381
0.0598705
0.0650273
0.070015
0.0749538
0.0799392
0.085049
0.0903433
0.095862
0.101621
0.107608
0.113779
0.120059
0.126343
0.132506
0.138414
0.143951
0.149053
0.153768
0.0149195
0.0312038
0.0406114
0.0476658
0.053635
0.0589996
0.0640093
0.0688225
0.0735545
0.0782958
0.0831197
0.0880838
0.0932287
0.0985753
0.104121
0.109839
0.115674
0.121546
0.127356
0.132997
0.138371
0.143423
0.148175
0.0147003
0.0308705
0.0401789
0.0471388
0.0530016
0.0582411
0.063103
0.0677423
0.072271
0.0767765
0.0813293
0.0859858
0.0907875
0.0957597
0.100908
0.106219
0.111654
0.117155
0.122646
0.128042
0.133263
0.138259
0.143058
0.0145357
0.0306424
0.0398687
0.0467432
0.0525049
0.0576227
0.0623394
0.0668083
0.0711392
0.0754178
0.0797133
0.0840815
0.0885654
0.0931938
0.0979805
0.102921
0.107994
0.113158
0.118356
0.123524
0.128597
0.133557
0.13841
0.0144288
0.0305274
0.0396935
0.0464955
0.0521648
0.0571672
0.0617441
0.066048
0.070188
0.0742489
0.0782995
0.0823958
0.0865822
0.0908913
0.0953428
0.0999422
0.10468
0.10953
0.114453
0.119401
0.124351
0.129276
0.134176
0.0143815
0.0305325
0.039665
0.046411
0.0519996
0.0568954
0.0613398
0.0654855
0.0694419
0.0732939
0.0771105
0.0809482
0.0848531
0.0888609
0.0929968
0.097274
0.101693
0.106242
0.110897
0.115648
0.120469
0.125343
0.130273
0.0143968
0.0306666
0.0397975
0.046508
0.05203
0.0568295
0.0611494
0.0651438
0.0689236
0.0725745
0.0761661
0.0797558
0.0833912
0.0871107
0.0909437
0.09491
0.0990194
0.103271
0.107671
0.112212
0.116884
0.121679
0.126607
0.01448
0.0309449
0.0401121
0.0468105
0.0522815
0.0569952
0.0611981
0.0650473
0.068656
0.0721119
0.0754856
0.0788355
0.0822101
0.0856501
0.0891881
0.0928492
0.0966503
0.10061
0.104741
0.109049
0.113536
0.118209
0.123086
0.0146416
0.0313925
0.0406399
0.0473515
0.0527865
0.057423
0.0615138
0.0652214
0.0686627
0.0719279
0.0750892
0.0782055
0.0813264
0.0844932
0.0877412
0.0910995
0.0945931
0.0982507
0.102091
0.10613
0.110386
0.11488
0.119641
0.0148996
0.032048
0.0414241
0.0481727
0.0535823
0.0581452
0.0621244
0.0656903
0.0689652
0.0720426
0.0749963
0.0778857
0.0807597
0.0836599
0.0866223
0.0896784
0.0928621
0.0962013
0.0997223
0.103453
0.107423
0.111669
0.116232
0.015281
0.0329638
0.0425164
0.0493183
0.054704
0.0591884
0.06305
0.0664698
0.0695773
0.07247
0.0752228
0.0778946
0.0805325
0.0831761
0.0858605
0.0886191
0.0914854
0.0944898
0.0976643
0.101044
0.104671
0.108591
0.112863
0.0158218
0.0341993
0.0439661
0.0508215
0.0561698
0.0605595
0.0642902
0.0675564
0.0704958
0.0732098
0.0757743
0.0782459
0.0806672
0.0830724
0.085493
0.0879607
0.0905068
0.093164
0.0959678
0.0989587
0.102185
0.105704
0.109583
0.0165619
0.0358017
0.0457956
0.0526805
0.05796
0.0622278
0.0658092
0.0689139
0.0716881
0.0742372
0.0766372
0.0789407
0.0811821
0.0833841
0.0855676
0.0877579
0.0899868
0.0922896
0.0947045
0.0972749
0.100052
0.103099
0.10649
0.017531
0.037772
0.0479682
0.0548319
0.0599955
0.0641074
0.067521
0.0704605
0.0730803
0.0754901
0.0777669
0.079959
0.082088
0.0841532
0.0861457
0.0880829
0.0900026
0.0919478
0.0939616
0.0960891
0.0983811
0.1009
0.103721
0.0187241
0.0400228
0.050356
0.0571283
0.0621236
0.0660489
0.069283
0.0720627
0.0745496
0.0768595
0.0790749
0.0812462
0.0833828
0.0854397
0.0873179
0.0890338
0.0906508
0.0922338
0.0938368
0.0955069
0.0972915
0.0992464
0.101441
0.0200748
0.042347
0.0527232
0.0593338
0.064121
0.0678451
0.0709037
0.0735412
0.0759258
0.0781836
0.0804144
0.0826932
0.0850447
0.0873601
0.089237
0.0907505
0.0920519
0.0932557
0.0944347
0.0956376
0.0969054
0.0982826
0.0998237
0.0214281
0.0444071
0.0547294
0.061139
0.0657155
0.0692558
0.0721657
0.0746921
0.0770087
0.0792565
0.0815703
0.0840995
0.0869988
0.090223
0.0921889
0.0934343
0.0943514
0.0951319
0.0958635
0.0965906
0.0973425
0.0981483
0.0990432
0.0224913
0.0457418
0.0559547
0.0621985
0.0666263
0.0700471
0.0728656
0.0753274
0.0776091
0.0798653
0.0822716
0.0851005
0.0889002
0.0949771
0.0966777
0.0973309
0.0976989
0.0979795
0.098231
0.0984743
0.0987205
0.0989796
0.0992645
0.0692563
0.0507469
0.0447364
0.0623705
0.0997549
0.0893451
0.0793519
0.0753354
0.138145
0.128653
0.116294
0.107793
0.171935
0.168301
0.161789
0.15397
0.181291
0.18172
0.179492
0.174404
0.204344
0.188235
0.18904
0.183676
0.219504
0.221525
0.212374
0.203929
0.233492
0.255093
0.256004
0.254304
0.246208
0.271527
0.283253
0.292779
0.250704
0.258143
0.266981
0.271374
0.25405
0.257713
0.260732
0.263334
0.257576
0.257115
0.258133
0.259087
0.2845
0.263246
0.261876
0.259994
0.371161
0.360961
0.349879
0.331111
0.32356
0.337686
0.347256
0.345397
0.265178
0.275721
0.285492
0.29302
0.231307
0.238072
0.245502
0.253154
0.21246
0.217072
0.222464
0.228554
0.200531
0.20402
0.208111
0.212748
0.191479
0.194383
0.197681
0.201296
0.183632
0.186233
0.189063
0.192035
0.176377
0.178826
0.181388
0.183981
0.169537
0.171914
0.174332
0.176715
0.163099
0.165448
0.167797
0.17008
0.157097
0.159445
0.161774
0.164034
0.151558
0.15393
0.156282
0.158569
0.146514
0.148929
0.151326
0.15367
0.141947
0.144412
0.14687
0.14929
0.137794
0.140313
0.142837
0.145342
0.133963
0.136532
0.139121
0.141709
0.130348
0.132953
0.135594
0.138254
0.126844
0.129462
0.132132
0.13484
0.123364
0.12596
0.128625
0.131347
0.119856
0.122384
0.124997
0.127688
0.116307
0.118713
0.121217
0.123816
0.112759
0.114978
0.117307
0.119743
0.109303
0.111271
0.113351
0.115546
0.106087
0.107742
0.109503
0.111376
0.103293
0.104588
0.105973
0.107455
0.101129
0.102039
0.103014
0.104061
0.0998006
0.100326
0.10089
0.101494
0.0995057
0.0996728
0.0998512
0.100041
0.0763394
0.107989
0.126088
0.151738
0.171084
0.175374
0.176249
0.175866
0.186306
0.216458
0.228637
0.240079
0.242414
0.221544
0.180906
0.159305
0.128844
0.0930712
0.0476835
0.0830214
0.115784
0.135644
0.15044
0.154654
0.162006
0.167764
0.172537
0.1927
0.236327
0.240669
0.244823
0.24933
0.233806
0.212189
0.191416
0.131011
0.0886199
0.0534044
0.109259
0.142339
0.154778
0.15583
0.161325
0.173669
0.17909
0.188413
0.220593
0.259435
0.253875
0.258072
0.272002
0.258424
0.224359
0.188706
0.112337
0.0713126
0.0395013
0.147187
0.163076
0.166273
0.179639
0.193669
0.198333
0.199519
0.214573
0.248437
0.268868
0.261222
0.272646
0.306187
0.292265
0.238692
0.194159
0.0971289
0.0536711
0.0305474
0.166349
0.171699
0.192011
0.214925
0.221657
0.215028
0.216591
0.235693
0.260178
0.264871
0.25919
0.282256
0.323639
0.320729
0.258054
0.237449
0.133277
0.0544619
0.0399553
0.174987
0.189372
0.222482
0.224805
0.221941
0.217696
0.226492
0.245026
0.260047
0.250607
0.252386
0.287779
0.328989
0.332836
0.272852
0.270856
0.227478
0.105712
0.0600096
0.202311
0.219239
0.230007
0.22813
0.218002
0.218835
0.230849
0.249281
0.248503
0.231568
0.246774
0.304723
0.333454
0.33842
0.284721
0.291771
0.283011
0.248811
0.0869018
0.255227
0.263524
0.250638
0.229578
0.218918
0.22251
0.234257
0.244379
0.221615
0.21859
0.231782
0.325654
0.341857
0.354484
0.312819
0.309348
0.318623
0.34241
0.088933
0.304422
0.296553
0.269298
0.241576
0.23379
0.236874
0.240304
0.22584
0.214472
0.215627
0.239962
0.310273
0.33739
0.34424
0.31925
0.315446
0.35081
0.455419
0.0932067
0.276409
0.279649
0.272121
0.25976
0.253677
0.245726
0.236402
0.225977
0.216211
0.221181
0.271495
0.300094
0.30962
0.322565
0.312129
0.309911
0.36751
0.577777
0.0967072
0.266554
0.267412
0.265971
0.260876
0.25215
0.24442
0.236685
0.227842
0.22038
0.23747
0.284292
0.292649
0.295734
0.303622
0.302938
0.312019
0.430531
0.656257
0.0965233
0.259307
0.257727
0.25652
0.253323
0.247573
0.241822
0.235757
0.229471
0.231552
0.287766
0.288668
0.291504
0.293078
0.296536
0.301046
0.325604
0.59024
0.638837
0.0912302
0.256986
0.253113
0.251838
0.249097
0.245457
0.242911
0.238812
0.240004
0.29833
0.295032
0.296957
0.30401
0.305479
0.306942
0.323647
0.439864
0.726807
0.537561
0.0866104
0.272068
0.257712
0.255674
0.252462
0.250138
0.257272
0.285207
0.30885
0.315185
0.308979
0.316783
0.342575
0.365806
0.390149
0.43456
0.559792
0.691431
0.445976
0.0858543
0.325459
0.30896
0.30269
0.295726
0.302028
0.31859
0.338839
0.347597
0.341353
0.331602
0.337804
0.359968
0.388503
0.424642
0.478595
0.556297
0.549763
0.401139
0.0967453
0.30176
0.312995
0.319118
0.321585
0.333948
0.352909
0.369554
0.375327
0.367263
0.354227
0.349593
0.358608
0.378111
0.405728
0.440499
0.466136
0.454126
0.37991
0.116623
0.265987
0.282519
0.297085
0.310988
0.330323
0.354044
0.373793
0.382137
0.376873
0.363179
0.350162
0.345684
0.350974
0.364365
0.382831
0.402291
0.406263
0.368786
0.159547
0.239541
0.254393
0.270239
0.287985
0.309738
0.33407
0.355356
0.367056
0.366153
0.355094
0.339779
0.327397
0.322677
0.327903
0.343627
0.368104
0.383326
0.360638
0.175216
0.221129
0.232556
0.245904
0.262176
0.282071
0.304092
0.324163
0.337363
0.340489
0.333665
0.320541
0.307078
0.299867
0.30417
0.322879
0.351611
0.371915
0.35398
0.18044
0.207651
0.216012
0.226025
0.238803
0.254771
0.272799
0.290006
0.302706
0.308029
0.305255
0.29654
0.286535
0.282042
0.289476
0.312005
0.343522
0.36569
0.348872
0.178413
0.19706
0.203245
0.210459
0.219777
0.231653
0.245414
0.259136
0.270179
0.276237
0.276469
0.272257
0.267229
0.267573
0.279542
0.305484
0.338781
0.361604
0.3449
0.169054
0.188211
0.193053
0.198354
0.205055
0.213639
0.223787
0.234292
0.243361
0.249294
0.251574
0.251056
0.250744
0.25595
0.272085
0.300574
0.334689
0.35761
0.340487
0.150592
0.180517
0.184643
0.18883
0.193859
0.200188
0.207721
0.21574
0.223096
0.228682
0.232252
0.234459
0.237906
0.247021
0.266166
0.295892
0.32955
0.351748
0.331754
0.120943
0.173694
0.177537
0.181211
0.185341
0.190331
0.1962
0.202543
0.208658
0.213985
0.218341
0.22246
0.228607
0.240398
0.261149
0.290638
0.32242
0.342778
0.315052
0.0928611
0.167616
0.171459
0.175028
0.178814
0.18315
0.188104
0.193466
0.198855
0.203989
0.208858
0.214262
0.222168
0.235464
0.256517
0.284519
0.313411
0.331601
0.301467
0.0844187
0.16222
0.166242
0.169965
0.17377
0.177918
0.182488
0.187372
0.192408
0.197452
0.202671
0.208885
0.217782
0.231612
0.251945
0.277681
0.303387
0.319952
0.298969
0.0799911
0.157451
0.161761
0.165796
0.169843
0.174098
0.178627
0.183383
0.188293
0.19334
0.198797
0.205461
0.214752
0.228384
0.247334
0.27038
0.292978
0.308253
0.293994
0.0776278
0.153237
0.157894
0.162328
0.166746
0.171284
0.175979
0.180813
0.185753
0.190864
0.196472
0.203313
0.212556
0.22547
0.242601
0.262741
0.28231
0.29616
0.286012
0.0762733
0.14947
0.154502
0.159376
0.164233
0.169149
0.174134
0.179163
0.18423
0.18944
0.195127
0.201945
0.210827
0.222683
0.237747
0.254878
0.271449
0.283495
0.275357
0.0756782
0.146015
0.151424
0.156748
0.162071
0.167417
0.172757
0.178054
0.183305
0.18863
0.194341
0.200994
0.209315
0.219923
0.232843
0.247058
0.260583
0.27029
0.261908
0.0758216
0.142718
0.148483
0.154246
0.160038
0.165834
0.171567
0.177174
0.182647
0.188094
0.193793
0.200194
0.207843
0.217134
0.227953
0.239401
0.249892
0.25674
0.246519
0.0772856
0.139423
0.145502
0.151672
0.157919
0.164169
0.170314
0.17626
0.181981
0.187562
0.19323
0.199339
0.206279
0.214272
0.223118
0.232012
0.239598
0.243407
0.232099
0.0815385
0.135992
0.142319
0.148842
0.155509
0.162202
0.168772
0.175079
0.181073
0.186804
0.192446
0.198262
0.20451
0.211286
0.218335
0.224932
0.229864
0.230809
0.218559
0.0929953
0.132315
0.138792
0.145588
0.152619
0.15973
0.166726
0.173418
0.179714
0.185626
0.191269
0.196822
0.202436
0.208108
0.213548
0.218091
0.220605
0.218822
0.204503
0.102818
0.128324
0.134818
0.141767
0.149075
0.156555
0.163969
0.171069
0.17771
0.183852
0.18955
0.194902
0.199969
0.204667
0.208677
0.211351
0.211572
0.207066
0.190286
0.103447
0.124007
0.130339
0.137273
0.144719
0.152479
0.16028
0.167818
0.174868
0.181325
0.187168
0.192412
0.197042
0.200915
0.203671
0.204634
0.202641
0.195552
0.176757
0.100245
0.119422
0.125363
0.132047
0.139421
0.147307
0.155422
0.163424
0.170978
0.177894
0.184034
0.189304
0.193631
0.196851
0.19856
0.197998
0.193945
0.184936
0.165091
0.0961419
0.114711
0.119993
0.126117
0.133103
0.140846
0.149114
0.157569
0.165771
0.1734
0.180086
0.185571
0.189742
0.192468
0.193336
0.191494
0.185912
0.175765
0.155832
0.0923467
0.110112
0.114451
0.119645
0.125807
0.132963
0.141028
0.149795
0.158845
0.167685
0.175333
0.18129
0.185435
0.187732
0.187832
0.184881
0.177972
0.167165
0.148802
0.0895565
0.105947
0.109103
0.112995
0.117808
0.123712
0.130871
0.139439
0.149515
0.160649
0.170007
0.176736
0.180914
0.182688
0.181788
0.177269
0.168322
0.157485
0.143143
0.0892723
0.102582
0.104432
0.106764
0.109749
0.113614
0.118725
0.125805
0.136445
0.152484
0.164727
0.172566
0.176771
0.177813
0.175368
0.16787
0.153728
0.143464
0.134935
0.0922433
0.100381
0.10096
0.101697
0.102655
0.103936
0.105766
0.108878
0.116519
0.144663
0.160796
0.169824
0.174099
0.174443
0.170187
0.157886
0.12711
0.118845
0.112902
0.0890073
)
;

boundaryField
{
    leftWall
    {
        type            kqRWallFunction;
        value           nonuniform List<scalar> 
50
(
0.00256542
0.00436924
0.0054487
0.0061977
0.00673351
0.00711205
0.00736315
0.0074982
0.00744154
0.00733102
0.00726362
0.00719033
0.00890259
0.0101704
0.0108381
0.0120182
0.0133483
0.0145372
0.0154966
0.016239
0.0167926
0.017179
0.0174138
0.0175109
0.0174856
0.0173555
0.01714
0.0168597
0.0165352
0.0161871
0.0158352
0.015497
0.0151879
0.0149195
0.0147003
0.0145357
0.0144288
0.0143815
0.0143968
0.01448
0.0146416
0.0148996
0.015281
0.0158218
0.0165619
0.017531
0.0187241
0.0200748
0.0214281
0.0224913
)
;
    }
    rightWall
    {
        type            kqRWallFunction;
        value           nonuniform List<scalar> 
50
(
0.0110014
0.0145651
0.0169474
0.0185309
0.0189408
0.0196469
0.0213591
0.0316797
0.0476835
0.0534044
0.0395013
0.0305474
0.0399553
0.0600096
0.0869018
0.088933
0.0932067
0.0967072
0.0965233
0.0912302
0.0866104
0.0858543
0.0967453
0.116623
0.159547
0.175216
0.18044
0.178413
0.169054
0.150592
0.120943
0.0928611
0.0844187
0.0799911
0.0776278
0.0762733
0.0756782
0.0758216
0.0772856
0.0815385
0.0929953
0.102818
0.103447
0.100245
0.0961419
0.0923467
0.0895565
0.0892723
0.0922433
0.0890073
)
;
    }
    lowerWall
    {
        type            kqRWallFunction;
        value           nonuniform List<scalar> 
62
(
0.00256542
0.00381561
0.00508125
0.00612472
0.00701827
0.00782097
0.00856801
0.00926549
0.00990611
0.0104796
0.0109794
0.0114065
0.0117743
0.0121214
0.0125118
0.0129456
0.0134716
0.0139719
0.0142586
0.0139585
0.012363
0.00870485
0.00345106
0.00345106
0.00749564
0.00989644
0.012055
0.0148096
0.0201972
0.0311303
0.052957
0.0692563
0.0507469
0.0447364
0.0623705
0.0230706
0.0468638
0.0573111
0.0640104
0.068887
0.07237
0.0746678
0.0758862
0.0230706
0.0267469
0.0335111
0.0390368
0.0430539
0.0459181
0.0485018
0.050859
0.0525625
0.0532101
0.0513179
0.0459219
0.0382407
0.0334412
0.0311837
0.0292786
0.0262447
0.0194763
0.0110014
)
;
    }
    atmosphere
    {
        type            inletOutlet;
        inletValue      uniform 0.1;
        value           nonuniform List<scalar> 
46
(
0.0224913
0.0457418
0.0559547
0.0621985
0.0666263
0.0700471
0.0728656
0.0753274
0.0776091
0.0798653
0.0822716
0.0851005
0.0889002
0.1
0.1
0.1
0.1
0.1
0.1
0.1
0.1
0.1
0.1
0.1
0.1
0.1
0.1
0.1
0.1
0.1
0.1
0.1
0.1
0.1
0.1
0.144663
0.160796
0.169824
0.174099
0.174443
0.170187
0.157886
0.1
0.1
0.1
0.0890073
)
;
    }
    defaultFaces
    {
        type            empty;
    }
}


// ************************************************************************* //
