/*--------------------------------*- C++ -*----------------------------------*\
| =========                 |                                                 |
| \\      /  F ield         | OpenFOAM: The Open Source CFD Toolbox           |
|  \\    /   O peration     | Version:  v2012                                 |
|   \\  /    A nd           | Website:  www.openfoam.com                      |
|    \\/     M anipulation  |                                                 |
\*---------------------------------------------------------------------------*/
FoamFile
{
    version     2.0;
    format      ascii;
    class       volScalarField;
    location    "0.9";
    object      nut;
}
// * * * * * * * * * * * * * * * * * * * * * * * * * * * * * * * * * * * * * //

dimensions      [0 2 -1 0 0 0 0];


internalField   nonuniform List<scalar> 
2268
(
4.56922e-05
4.10958e-05
4.75137e-05
5.22411e-05
5.59847e-05
5.91453e-05
6.19331e-05
6.44155e-05
6.6604e-05
6.85004e-05
7.01184e-05
7.14955e-05
7.27089e-05
7.39185e-05
7.54027e-05
7.71233e-05
7.91662e-05
8.10253e-05
8.21581e-05
8.12127e-05
7.58687e-05
6.23856e-05
3.89066e-05
9.34875e-05
0.000204573
0.000280631
0.000339633
0.000383172
0.000417693
0.000447887
0.00047579
0.00050193
0.00052639
0.000549392
0.000571388
0.000592873
0.000613922
0.000633222
0.000654271
0.000676821
0.000697713
0.000705856
0.000679874
0.000596656
0.000432344
0.000122092
0.000104793
0.000358012
0.000512845
0.000630929
0.000721612
0.000796001
0.000861443
0.00092119
0.000976094
0.00102619
0.00107155
0.00111239
0.00114867
0.0011797
0.00120442
0.00122334
0.00123354
0.00122815
0.0011912
0.00109737
0.000919649
0.000630045
0.000140672
0.000112157
0.000484862
0.00070989
0.00087911
0.00101179
0.00112186
0.00121822
0.00130495
0.00138318
0.0014528
0.00151346
0.00156464
0.00160515
0.00163269
0.0016449
0.00163969
0.00161425
0.0015643
0.00147838
0.00133365
0.00109915
0.000736488
0.000155398
0.000117339
0.000588244
0.000875992
0.00108998
0.00125913
0.00139964
0.00152171
0.00163019
0.00172644
0.00181016
0.00188041
0.00193562
0.00197302
0.00198827
0.00197747
0.0019384
0.00187286
0.00178507
0.00167102
0.00150779
0.00125147
0.000838333
0.000171509
0.000121095
0.000672803
0.00101688
0.00127034
0.00147084
0.00163694
0.00178007
0.00190582
0.00201577
0.00210938
0.00218502
0.00223989
0.00226939
0.00226705
0.00222794
0.002153
0.00205358
0.00194656
0.00183468
0.00168825
0.00144104
0.000989224
0.000199118
0.0001238
0.000742683
0.00113708
0.00142509
0.00165226
0.00183957
0.00199972
0.00213899
0.00225917
0.00235947
0.00243749
0.00248906
0.00250756
0.00248456
0.00241506
0.00230745
0.00218756
0.00208666
0.00200898
0.00190894
0.00169367
0.00121857
0.000244709
0.000125615
0.000801446
0.00124004
0.00155775
0.00180717
0.00201171
0.00218532
0.00233492
0.0024625
0.00256703
0.0026453
0.00269157
0.00269699
0.00265148
0.00255239
0.00241973
0.00229793
0.00223017
0.00221239
0.00217429
0.00200033
0.00152921
0.000317493
9.8902e-05
0.000105632
0.00011804
0.000127733
0.000134642
0.000139694
0.000144214
0.000147994
0.000150701
0.000151874
0.000149154
0.000140454
0.000126364
0.000116945
0.000112217
0.000108466
0.000102879
8.9362e-05
9.52584e-05
0.000329036
0.000442385
0.000497476
0.000609385
0.000739614
0.000846594
0.000929021
0.000994378
0.00106329
0.00112877
0.0011592
0.00110183
0.000932792
0.000794412
0.000719717
0.00066507
0.000595663
0.000484859
0.000184459
0.000365036
0.000702278
0.000880624
0.00112532
0.00131459
0.00144405
0.00155873
0.0016759
0.00181051
0.00194796
0.00203103
0.00195805
0.00164551
0.00133389
0.00111993
0.000960864
0.000797058
0.000584073
0.000198924
0.000386079
0.000930773
0.00121538
0.00149034
0.00164852
0.00177065
0.00190581
0.00205832
0.00223143
0.00242649
0.0025775
0.00255237
0.00216337
0.00171811
0.00135271
0.00107323
0.000822165
0.000556484
0.000207272
0.000400954
0.00111528
0.00145864
0.00170073
0.00181073
0.00193888
0.00211166
0.00230185
0.00250262
0.00275675
0.00296605
0.00300332
0.00255667
0.0020168
0.00151777
0.0011234
0.000797461
0.000510325
0.00021125
0.000411862
0.00125048
0.00162114
0.00184596
0.00200856
0.00231038
0.00249954
0.00270337
0.00297246
0.00321507
0.00345962
0.00348151
0.00292562
0.00229781
0.00170678
0.00120142
0.000814714
0.000490175
0.000218409
0.000419914
0.00133891
0.00172719
0.00198923
0.00229288
0.00252757
0.00263872
0.00282347
0.00320035
0.00369347
0.004096
0.00407349
0.00344975
0.0026154
0.00197118
0.00143861
0.00107369
0.000590105
0.000230471
0.0004255
0.00138304
0.00177429
0.00210818
0.00241178
0.00258334
0.00266069
0.00279459
0.003246
0.003923
0.00427429
0.00436582
0.00412162
0.00327009
0.00251909
0.00180748
0.00141613
0.000995263
0.000346243
0.000126579
0.000882253
0.00137913
0.00173571
0.00201361
0.0022396
0.00242939
0.00259082
0.00272626
0.00283428
0.00291024
0.00294557
0.00292767
0.00284562
0.0027064
0.00255561
0.00246274
0.0024689
0.0025387
0.00256681
0.0024291
0.00206913
0.00140075
0.000126045
0.000935159
0.00147331
0.0018593
0.00215993
0.00240367
0.00260717
0.00277876
0.00292106
0.00303213
0.00310506
0.00312615
0.00307665
0.00295121
0.00279218
0.00268808
0.00271555
0.00287298
0.00306881
0.00314716
0.00294642
0.00248102
0.00182854
0.000124931
0.000947988
0.00150283
0.00190374
0.00221708
0.00247054
0.00268114
0.00285772
0.00300336
0.00311539
0.00318293
0.00318293
0.00308791
0.00292015
0.00279899
0.00284074
0.00305602
0.00337702
0.00369695
0.0037503
0.00339294
0.0027531
0.00212475
0.000123151
0.000932261
0.00149079
0.00189958
0.0022221
0.00248258
0.00269714
0.00287509
0.00301995
0.00312749
0.00318037
0.00313953
0.00295881
0.0027287
0.00274658
0.00304361
0.00349211
0.00404989
0.00456259
0.00446748
0.00396425
0.00298632
0.00235813
0.000117952
0.000945879
0.00151158
0.00192617
0.00226296
0.00255776
0.00284194
0.00312011
0.00334901
0.00344332
0.00332619
0.00301206
0.00269303
0.00265662
0.00295097
0.00351066
0.00434692
0.0051791
0.00534381
0.00521148
0.00485137
0.00346533
0.00235963
0.000143108
0.000965659
0.0016352
0.00214922
0.00263202
0.00312202
0.00363182
0.00413054
0.00454076
0.00477875
0.00482563
0.00476447
0.00472677
0.00480904
0.00496373
0.00512099
0.00538981
0.00568042
0.00574826
0.00566382
0.00559956
0.00548672
0.00410954
0.000146603
0.000929931
0.00169649
0.00232006
0.00291889
0.00353607
0.00417806
0.00480512
0.0053343
0.00569396
0.00589071
0.00598582
0.00601051
0.00595396
0.00581648
0.00568997
0.00574641
0.00594613
0.00595683
0.00587919
0.00584255
0.0058429
0.00569648
0.000152373
0.000947109
0.00177883
0.00248587
0.00316457
0.003861
0.00458266
0.00528915
0.00589867
0.0063458
0.00664118
0.00683169
0.00691007
0.00681679
0.00655222
0.00627597
0.00618796
0.00615926
0.00608502
0.00604656
0.00606311
0.00611773
0.00617191
0.000160331
0.00100966
0.0018965
0.00266438
0.00339131
0.00412701
0.00488528
0.00563151
0.00628814
0.0067898
0.00714046
0.00738014
0.00749937
0.00742905
0.0071515
0.00683519
0.00673277
0.00677002
0.00626606
0.00625797
0.00630403
0.00641367
0.00654717
0.000167899
0.00109304
0.00204043
0.0028607
0.00361945
0.00436863
0.0051339
0.00589019
0.00656827
0.00710053
0.00747843
0.00773669
0.00787917
0.00785308
0.00762694
0.007321
0.00719327
0.00734425
0.00714939
0.00649997
0.00657317
0.00667297
0.00683456
0.000174118
0.00117751
0.00219425
0.00306674
0.00385461
0.00461007
0.00536419
0.00610979
0.00679327
0.00734364
0.00773661
0.00799877
0.00814877
0.00816039
0.00800424
0.00775315
0.0075875
0.00767681
0.00787472
0.00747722
0.00677641
0.0069108
0.00700809
0.000178947
0.00125534
0.00234483
0.00327052
0.00408876
0.00485178
0.00559457
0.00632188
0.00699643
0.00755552
0.00796127
0.00822489
0.0083732
0.00840898
0.00832126
0.0081424
0.00796312
0.00789738
0.00802207
0.00815279
0.00780163
0.00707949
0.00711336
0.00018257
0.00132377
0.00248434
0.00346309
0.00431381
0.00508851
0.00582443
0.00653484
0.00719765
0.00776174
0.00818295
0.00845697
0.00860966
0.00866358
0.00862655
0.00851229
0.00835254
0.00819427
0.00811785
0.00818578
0.00829129
0.00813198
0.00778966
0.000185156
0.00138126
0.00260797
0.0036381
0.00452278
0.00531352
0.00604858
0.00674703
0.00739962
0.00796889
0.00841176
0.0087111
0.00888355
0.00895869
0.00895829
0.00889375
0.00877031
0.00859453
0.00840133
0.00826964
0.00825289
0.00830711
0.00829021
0.000186835
0.00142711
0.0027129
0.00379129
0.00471014
0.00552019
0.00625992
0.00695205
0.00759726
0.00817168
0.00863913
0.00897565
0.00918545
0.00929385
0.00932811
0.00930373
0.00922078
0.00907108
0.00885973
0.00862799
0.00844271
0.00835423
0.00836219
0.000187706
0.00146146
0.0027979
0.0039201
0.00487194
0.00570303
0.00645149
0.0071422
0.00778285
0.0083613
0.00885121
0.00922834
0.0094869
0.0096421
0.00971837
0.00973406
0.00969295
0.00958729
0.00941239
0.00918434
0.00894612
0.00875608
0.00866522
0.000187859
0.00148518
0.002863
0.00402341
0.00500571
0.00585798
0.0066176
0.00731042
0.00794881
0.00852964
0.00903655
0.00944961
0.00975813
0.00996738
0.0100941
0.0101555
0.0101593
0.0101034
0.009984
0.00980743
0.00959819
0.00939832
0.00925871
0.000187389
0.00149949
0.00290907
0.00410121
0.00511031
0.00598256
0.00675421
0.00745125
0.00808891
0.00867045
0.00918798
0.00962777
0.00997889
0.0102401
0.0104202
0.0105317
0.0105838
0.0105791
0.0105175
0.010403
0.0102503
0.0100868
0.00995126
0.000186396
0.00150569
0.0029375
0.00415433
0.00518576
0.00607571
0.00685898
0.00756112
0.00819883
0.00877957
0.00930191
0.00975826
0.0101402
0.0104439
0.0106724
0.0108331
0.0109337
0.0109789
0.0109713
0.0109151
0.0108198
0.0107036
0.0105947
0.000184985
0.00150504
0.00295001
0.00418432
0.00523307
0.00613769
0.00693124
0.00763833
0.00827617
0.00885477
0.00937719
0.00984099
0.0102413
0.0105745
0.0108406
0.0110433
0.0111875
0.0112779
0.011318
0.0113118
0.0112664
0.0111943
0.0111164
0.000183263
0.00149882
0.00294858
0.00419325
0.00525409
0.00616989
0.00697172
0.0076829
0.00832042
0.0088956
0.00941442
0.00987834
0.010286
0.0106353
0.0109258
0.0111588
0.0113372
0.0114643
0.0115433
0.0115776
0.0115728
0.0115378
0.0114885
0.00018134
0.00148835
0.00293545
0.00418377
0.00525149
0.00617475
0.00698245
0.00769635
0.0083327
0.00890323
0.00941564
0.00987408
0.0102801
0.0106337
0.0109352
0.0111853
0.0113856
0.0115383
0.0116456
0.0117102
0.0117361
0.0117304
0.0117052
0.000179328
0.00147501
0.00291312
0.004159
0.00522863
0.00615562
0.00696661
0.00768155
0.00831561
0.00888031
0.00938414
0.00983298
0.0102305
0.010579
0.0108797
0.0111341
0.0113435
0.0115094
0.0116332
0.0117171
0.0117641
0.0117797
0.0117733
0.000177333
0.00146017
0.00288426
0.00412243
0.00518948
0.00611667
0.00692833
0.00764252
0.00827304
0.00883076
0.00932436
0.00976064
0.0101448
0.0104808
0.0107715
0.0110193
0.0112259
0.011393
0.0115219
0.0116144
0.0116729
0.0117018
0.0117088
0.000175453
0.0014451
0.00285154
0.0040778
0.00513846
0.00606268
0.00687256
0.00758422
0.00820994
0.00875965
0.00924176
0.00966347
0.0100309
0.0103494
0.0106231
0.0108557
0.0110499
0.0112079
0.0113317
0.011423
0.0114842
0.0115191
0.0115339
0.00017377
0.0014309
0.00281757
0.00402892
0.00508023
0.00599884
0.00680481
0.0075123
0.00813205
0.00867288
0.00914264
0.00954853
0.00989722
0.0101949
0.010447
0.0106583
0.010833
0.0109741
0.0110845
0.0111665
0.0112229
0.0112573
0.0112748
0.00017235
0.00141851
0.00278474
0.00397952
0.00501947
0.00593054
0.00673087
0.00743283
0.00804563
0.00857693
0.00903383
0.00942329
0.0097522
0.0100273
0.0102552
0.0104416
0.010592
0.0107109
0.010802
0.0108687
0.0109144
0.0109428
0.0109597
0.000171239
0.00140866
0.00275523
0.00393309
0.00496076
0.00586307
0.00665656
0.00735197
0.00795708
0.00847842
0.00892231
0.00929529
0.00960427
0.00985641
0.0100589
0.0102188
0.0103426
0.010436
0.0105042
0.0105516
0.0105824
0.0106023
0.0106161
0.000170467
0.00140201
0.00273101
0.00389291
0.00490839
0.00580152
0.00658749
0.00727566
0.00787259
0.00838378
0.00881478
0.00917168
0.00946126
0.0096909
0.00986838
0.0100015
0.010098
0.0101648
0.0102083
0.0102341
0.010249
0.0102583
0.0102669
0.000170056
0.00139914
0.00271392
0.00386201
0.00486638
0.00575062
0.00652885
0.00720939
0.00779782
0.00829881
0.00871726
0.00905881
0.00933003
0.00953841
0.0096921
0.00979962
0.00986948
0.00990988
0.00992841
0.0099332
0.00993096
0.0099278
0.00992921
0.000170026
0.00140072
0.00270579
0.00384333
0.0048385
0.00571468
0.0064853
0.00715798
0.00773763
0.00822839
0.00863468
0.00896178
0.00921606
0.00940497
0.00953687
0.00962075
0.00966584
0.00968125
0.00967649
0.00966009
0.0096398
0.00962258
0.0096145
0.00017041
0.00140754
0.00270857
0.00383971
0.00482824
0.00569756
0.00646082
0.00712534
0.00769581
0.00817615
0.00857057
0.00888415
0.00912306
0.00929468
0.00940738
0.00947037
0.00949334
0.00948646
0.00945972
0.00942249
0.00938345
0.00935045
0.00933024
0.000171266
0.00142065
0.00272435
0.00385393
0.0048387
0.00570243
0.00645843
0.00711423
0.00767475
0.00814413
0.0085267
0.00882754
0.00905274
0.00920948
0.00930601
0.0093515
0.00935586
0.00932952
0.00928276
0.00922559
0.00916745
0.00911697
0.00908168
0.000172685
0.00144125
0.0027551
0.00388825
0.00487211
0.00573127
0.00647972
0.00712573
0.00767502
0.00813242
0.00850277
0.00879142
0.00900446
0.00914888
0.00923262
0.00926453
0.00925432
0.00921212
0.00914823
0.0090729
0.008996
0.00892682
0.00887361
0.000174799
0.0014704
0.00280201
0.00394355
0.0049289
0.00578402
0.00652411
0.00715875
0.00769498
0.00813885
0.00849616
0.00877282
0.0089751
0.00910981
0.00918439
0.00920713
0.00918704
0.00913363
0.00905676
0.00896642
0.00887252
0.00878458
0.00871146
0.000177764
0.00150819
0.00286402
0.00401781
0.00500645
0.00585762
0.00658816
0.00720947
0.00773045
0.00815888
0.00850193
0.00876647
0.00895916
0.00908665
0.00915579
0.00917408
0.00914953
0.00909069
0.00900652
0.00890623
0.00879917
0.00869461
0.0086015
0.000181718
0.00155245
0.00293616
0.00410479
0.0050981
0.0059454
0.00666533
0.00727147
0.00777505
0.00818603
0.00851343
0.00876541
0.00894933
0.00907182
0.00913907
0.00915764
0.00913442
0.00907676
0.00899239
0.00888929
0.00877563
0.00865971
0.00854987
0.000186691
0.00159767
0.00300878
0.00419379
0.00519344
0.00603765
0.00674669
0.00733656
0.00782121
0.00821316
0.00852362
0.00876242
0.00893798
0.00905708
0.00912533
0.0091483
0.00913174
0.00908188
0.00900515
0.00890802
0.00879701
0.00867872
0.00855998
0.000192505
0.00163534
0.00306936
0.00427193
0.00528038
0.00612344
0.00682261
0.00739646
0.0078619
0.00823423
0.00852705
0.00875219
0.00891942
0.00903582
0.00910662
0.00913636
0.00913009
0.00909331
0.00903143
0.00894943
0.00885195
0.00874346
0.00862852
0.000198703
0.00165707
0.00310731
0.00432848
0.00534857
0.00619318
0.00688476
0.00744451
0.00789229
0.00824612
0.00852196
0.00873375
0.00889277
0.00900619
0.00907868
0.0091144
0.00911878
0.00909743
0.00905511
0.00899561
0.00892185
0.00883624
0.00874091
0.000204543
0.00165956
0.00312004
0.0043595
0.00539248
0.00624078
0.00692769
0.00747687
0.00791077
0.00824964
0.00851139
0.0087119
0.0088639
0.00897438
0.00904401
0.00907977
0.00909045
0.00908258
0.00906047
0.00902678
0.00898313
0.00893043
0.0088691
0.00020894
0.00165004
0.00311682
0.0043698
0.00541246
0.00626416
0.00694908
0.00749255
0.00791865
0.00824891
0.00850234
0.00869593
0.00884388
0.00896349
0.00901461
0.00903542
0.00904261
0.0090421
0.00903633
0.00902643
0.00901292
0.00899598
0.00897551
0.000376861
0.000322747
0.000299092
0.000353183
0.00116609
0.000881254
0.000681081
0.000610058
0.00166109
0.00140173
0.00117748
0.00105694
0.00215849
0.0019968
0.00183101
0.00170644
0.00223133
0.00222722
0.00217941
0.0021127
0.00271436
0.00229217
0.0022752
0.00223175
0.00406261
0.00354867
0.00309188
0.00286186
0.00549004
0.00485904
0.00444988
0.00419231
0.00664583
0.00643431
0.00601265
0.00571639
0.00697081
0.00705658
0.00716573
0.00715754
0.00712763
0.00719459
0.00723918
0.00726361
0.00723203
0.00725594
0.00727941
0.00730032
0.00727828
0.00726074
0.00729966
0.00733025
0.0081316
0.00804751
0.00797633
0.00784078
0.00841684
0.00846023
0.00848741
0.00846957
0.00867829
0.00869087
0.00872362
0.00877637
0.00922876
0.00921619
0.00922362
0.00925631
0.00990314
0.00987626
0.00986737
0.00987421
0.0105464
0.0105151
0.0104964
0.0104868
0.0110757
0.0110454
0.0110217
0.0110022
0.0114577
0.0114308
0.0114056
0.0113802
0.0116842
0.0116616
0.011637
0.011609
0.0117612
0.0117429
0.0117204
0.0116924
0.0117038
0.0116897
0.0116701
0.0116438
0.0115341
0.0115236
0.0115073
0.0114841
0.0112784
0.011271
0.0112583
0.0112395
0.0109655
0.0109609
0.010952
0.0109381
0.010623
0.0106206
0.0106153
0.0106066
0.0102736
0.0102728
0.0102707
0.0102667
0.00993418
0.00993406
0.00993422
0.00993427
0.00961585
0.00961511
0.0096162
0.00961881
0.00932551
0.00932244
0.0093226
0.00932581
0.00906793
0.00906043
0.00905737
0.00905866
0.00884768
0.00883342
0.00882451
0.00882097
0.00867045
0.0086472
0.00862973
0.00861825
0.00854368
0.00850976
0.00848147
0.0084592
0.00847585
0.00843099
0.00839085
0.00835596
0.0084742
0.00842057
0.00836993
0.0083229
0.00854026
0.00848336
0.00842722
0.00837235
0.00866364
0.00861235
0.00855977
0.00850617
0.00881702
0.00878149
0.00874387
0.00870411
0.00895749
0.00894489
0.0089312
0.00891631
0.000565634
0.00140206
0.00181114
0.0022039
0.00249843
0.00264164
0.0026808
0.00275536
0.00314489
0.00405492
0.00440265
0.00454313
0.00446458
0.00408804
0.00307407
0.00213443
0.00159177
0.00117296
0.000383697
0.00074939
0.00149103
0.00195227
0.00235473
0.00260202
0.00272859
0.00277605
0.00283807
0.00323489
0.00419474
0.00456563
0.0046925
0.00460226
0.00413688
0.00301536
0.00217499
0.00149879
0.00101023
0.000363792
0.00110872
0.00181001
0.00224403
0.00250348
0.00270508
0.0028823
0.00296643
0.00309976
0.00358705
0.00440799
0.00476235
0.0048827
0.00481159
0.00402875
0.00278171
0.00201492
0.00121465
0.000727392
0.000315349
0.00165635
0.00217497
0.00247673
0.00272666
0.00289318
0.00317323
0.00327545
0.00348218
0.00398971
0.00458804
0.00495688
0.00508123
0.00506907
0.00428032
0.00284332
0.00197651
0.000981901
0.000489429
0.000274918
0.00204672
0.0023696
0.00268949
0.00302041
0.00346545
0.00353021
0.00356486
0.00381776
0.00425704
0.00476476
0.00512482
0.00522169
0.0052176
0.00470901
0.0030954
0.00234921
0.00128494
0.000425672
0.000338553
0.00217453
0.00251859
0.00307965
0.00355737
0.00367809
0.00366799
0.00376279
0.00400918
0.00441316
0.00498315
0.00525546
0.00528204
0.00530604
0.00491266
0.00340198
0.0027304
0.00199164
0.000685892
0.000460647
0.00285126
0.00325503
0.00355802
0.00377702
0.00375798
0.00375532
0.00385288
0.00406886
0.00467487
0.00528203
0.00535154
0.00523895
0.00531517
0.00491835
0.00363048
0.00295294
0.00212184
0.00137049
0.000486729
0.00402994
0.00399632
0.00399191
0.00397436
0.00387885
0.00385853
0.00398364
0.00461228
0.00556587
0.00554385
0.00548422
0.00535524
0.00512413
0.00485046
0.00401164
0.00322233
0.00224066
0.00179158
0.000494061
0.00541597
0.00498078
0.00468127
0.00446492
0.00442568
0.00473276
0.00537608
0.00591531
0.00593985
0.00576511
0.00554887
0.00509559
0.00487322
0.0047432
0.00415589
0.00354011
0.0025759
0.00234321
0.00051782
0.00705747
0.00676818
0.00624322
0.00570653
0.0061329
0.00641248
0.0065287
0.00642449
0.00621202
0.00606978
0.00524842
0.00484301
0.00473394
0.00461188
0.00417308
0.00364349
0.00294715
0.00302762
0.000526669
0.00728231
0.00721215
0.0070612
0.00689963
0.00684658
0.00682524
0.00675443
0.00659493
0.00634218
0.00591722
0.00492541
0.00466931
0.00460343
0.0044672
0.00413882
0.00365549
0.00316758
0.00363484
0.000516899
0.00731247
0.00727125
0.00720024
0.00711689
0.00703025
0.0069445
0.0068244
0.00664567
0.0062825
0.00528447
0.00481861
0.00462127
0.00444493
0.00430256
0.004045
0.00357803
0.00384049
0.00391686
0.000491827
0.00732794
0.0072827
0.00723441
0.0071699
0.00708963
0.00699863
0.00683212
0.00647347
0.00572787
0.00511241
0.00476763
0.00451574
0.00428479
0.00409821
0.00381886
0.00370233
0.00443758
0.00382084
0.000487916
0.00743474
0.00734209
0.00730861
0.00725799
0.0071917
0.00717538
0.00711692
0.00661062
0.0058807
0.00522587
0.0048081
0.0045326
0.00434764
0.00419221
0.00418629
0.00453954
0.00500642
0.00382912
0.000502878
0.00840568
0.008465
0.00856691
0.0085907
0.00854495
0.00834348
0.00796157
0.00730118
0.00646995
0.00568566
0.00516693
0.00489434
0.00477182
0.00474829
0.00485955
0.00514249
0.00523533
0.00407679
0.000634521
0.0088982
0.00912821
0.00936144
0.00951544
0.00950903
0.00926395
0.00878535
0.00808117
0.00722349
0.00637788
0.00572558
0.00533356
0.00517324
0.00517665
0.00531972
0.00558073
0.00542608
0.00429736
0.000775847
0.0093552
0.00958057
0.00983773
0.010043
0.0100937
0.00988796
0.00942451
0.00874035
0.00791508
0.00706276
0.0063098
0.00578785
0.00553562
0.00551723
0.00569042
0.00586553
0.00559624
0.00440133
0.00082988
0.0099175
0.0100664
0.010256
0.0104167
0.0104539
0.0102823
0.0098645
0.00922226
0.00844557
0.00761883
0.00683364
0.0062335
0.00590981
0.00587394
0.00604438
0.00610346
0.0057319
0.00439599
0.000749722
0.0104866
0.0105528
0.0106468
0.0107194
0.010698
0.0105143
0.0101311
0.00955402
0.00883411
0.00804393
0.00727018
0.00665577
0.00631253
0.00625915
0.00635202
0.00631643
0.00583986
0.00434875
0.000703687
0.010974
0.0109763
0.0109885
0.0109772
0.0108905
0.0106765
0.0103037
0.00977113
0.00910918
0.00837251
0.00764388
0.00705775
0.00671705
0.00662878
0.00663255
0.00650656
0.0059223
0.00429227
0.000663818
0.0113353
0.011295
0.0112506
0.0111803
0.0110463
0.0108084
0.0104408
0.00994033
0.00932791
0.0086454
0.00797121
0.00742402
0.00708746
0.00695112
0.00687728
0.00666475
0.0059765
0.00423956
0.000616485
0.0115555
0.0114895
0.0114111
0.0113068
0.0111488
0.0109047
0.010551
0.0100829
0.00951666
0.00888434
0.00826342
0.00775078
0.00741046
0.00722354
0.007078
0.00678172
0.00599812
0.00418707
0.000550582
0.011636
0.0115577
0.0114622
0.0113424
0.0111785
0.0109439
0.0106162
0.0101872
0.00966791
0.00908812
0.00851768
0.00803301
0.00768217
0.00744607
0.0072319
0.00685268
0.00597962
0.00409008
0.000448215
0.0115893
0.011509
0.0114095
0.0112876
0.0111297
0.0109145
0.010621
0.0102384
0.00977042
0.00924816
0.00872677
0.0082663
0.00790381
0.00762307
0.00734275
0.00688153
0.00592321
0.00390415
0.000406989
0.0114354
0.0113616
0.0112686
0.0111553
0.0110123
0.0108226
0.0105674
0.0102339
0.00982413
0.00936198
0.00888939
0.00845305
0.00808223
0.00776332
0.0074209
0.00688481
0.00586597
0.00381688
0.000437359
0.0111994
0.0111387
0.0110608
0.0109652
0.0108446
0.0106853
0.0104707
0.0101887
0.00983868
0.00943632
0.00901215
0.00860162
0.00822752
0.00787777
0.00747945
0.00688179
0.00583725
0.00392556
0.000436466
0.0109085
0.0108657
0.0108094
0.0107384
0.0106466
0.0105219
0.01035
0.0101197
0.00982743
0.00948227
0.00910517
0.00872179
0.00834856
0.00797279
0.00752764
0.00687997
0.00581847
0.00398668
0.000438143
0.0105884
0.0105661
0.0105351
0.0104935
0.0104347
0.0103477
0.0102196
0.0100394
0.00980145
0.0095097
0.00917733
0.00882153
0.00845244
0.00805592
0.00757129
0.00688003
0.00579742
0.00400135
0.000439521
0.0102597
0.0102584
0.0102542
0.0102438
0.01022
0.0101718
0.0100871
0.0099545
0.00976694
0.00952442
0.00923394
0.00890551
0.00854341
0.0081317
0.00761513
0.00688466
0.00577753
0.00399211
0.000441884
0.009937
0.00995535
0.00997688
0.00999706
0.0100078
0.0099978
0.00995463
0.00986659
0.00972539
0.00952802
0.00927657
0.00897516
0.00862288
0.00820168
0.00765981
0.00689699
0.00576348
0.00396609
0.000446645
0.00962887
0.00966356
0.00970776
0.00975585
0.00979881
0.00982467
0.00982029
0.00977347
0.00967477
0.00951879
0.00930384
0.0090293
0.00868988
0.00826543
0.00770647
0.00691937
0.0057607
0.00393832
0.000458069
0.0093397
0.00938579
0.00944782
0.00951937
0.00959062
0.00964884
0.00967988
0.00967076
0.00961095
0.00949309
0.00931251
0.00906496
0.00874166
0.00832066
0.007754
0.00695285
0.00577669
0.00395745
0.00048463
0.00907194
0.0091229
0.00919627
0.0092853
0.00937957
0.00946571
0.00952827
0.00955331
0.00952905
0.00944643
0.00929846
0.00907813
0.00877406
0.00836296
0.00779787
0.0069926
0.00580383
0.00397481
0.00054834
0.00882833
0.00887611
0.00895267
0.00905154
0.00916222
0.00927078
0.00936052
0.00941612
0.00942437
0.00937451
0.00925761
0.00906457
0.00878212
0.00838592
0.0078291
0.00702402
0.00581128
0.00388367
0.000540302
0.00861389
0.00864899
0.00871877
0.00881793
0.00893656
0.00906068
0.00917259
0.00925511
0.00929317
0.00927403
0.00918679
0.00902065
0.00876097
0.00838235
0.0078364
0.00702939
0.00577954
0.00372903
0.000514493
0.00843734
0.00844927
0.00850042
0.00858788
0.0087035
0.00883401
0.00896197
0.00906751
0.00913316
0.0091433
0.00908447
0.00894426
0.00870721
0.00834651
0.00781042
0.00699579
0.00570714
0.00356992
0.000495571
0.0083121
0.00829056
0.00830988
0.00837088
0.00846896
0.00859348
0.00872846
0.00885223
0.00894392
0.00898311
0.00895225
0.00883709
0.00862065
0.0082757
0.00774676
0.0069223
0.00561078
0.00343669
0.000481568
0.00825591
0.00819371
0.0081686
0.00818625
0.00824775
0.00834809
0.00847576
0.00861049
0.0087274
0.00879738
0.00879557
0.00870358
0.00850465
0.00817104
0.00764385
0.00682549
0.00552068
0.00332825
0.000470282
0.0082875
0.00818595
0.00810978
0.00806881
0.00807109
0.00812074
0.00821651
0.00834833
0.00848959
0.00859399
0.00862316
0.00855341
0.00836884
0.00804373
0.00752431
0.00670642
0.00539647
0.00322918
0.000461921
0.00841785
0.00829413
0.00817653
0.00807452
0.00799997
0.0079665
0.00798975
0.00808576
0.00824592
0.0083893
0.00845206
0.00840435
0.00823187
0.00791508
0.00740475
0.00658944
0.0052603
0.00309764
0.000460125
0.00863506
0.00852642
0.00840577
0.00827524
0.00814018
0.00801125
0.00791091
0.00788915
0.00803106
0.00821255
0.00830908
0.00828209
0.00812278
0.00782114
0.00733706
0.00656756
0.00530128
0.00307692
0.000464848
0.0088893
0.00884306
0.0087855
0.00871303
0.00862072
0.00849989
0.00832882
0.00805771
0.00790282
0.00810425
0.00822533
0.00821347
0.00806622
0.00778602
0.00737139
0.00708703
0.00643389
0.00410661
0.000457982
)
;

boundaryField
{
    leftWall
    {
        type            nutkWallFunction;
        blending        stepwise;
        Cmu             0.09;
        kappa           0.41;
        E               9.8;
        value           nonuniform List<scalar> 
50
(
8.68705e-06
1.1206e-05
1.24385e-05
1.32155e-05
1.37398e-05
1.40965e-05
1.43272e-05
1.44496e-05
1.43984e-05
1.4298e-05
1.42363e-05
1.41841e-05
1.62692e-05
1.40311e-05
1.27234e-05
1.35105e-05
1.47039e-05
1.57501e-05
1.65632e-05
1.71734e-05
1.76182e-05
1.79237e-05
1.81074e-05
1.8183e-05
1.81634e-05
1.80619e-05
1.78931e-05
1.76715e-05
1.74124e-05
1.71313e-05
1.68435e-05
1.65635e-05
1.63045e-05
1.60771e-05
1.58898e-05
1.5748e-05
1.56554e-05
1.56144e-05
1.56277e-05
1.56998e-05
1.58393e-05
1.60602e-05
1.63828e-05
1.68324e-05
1.74338e-05
1.81986e-05
1.91079e-05
2.00983e-05
2.10534e-05
2.17799e-05
)
;
    }
    rightWall
    {
        type            nutkWallFunction;
        blending        stepwise;
        Cmu             0.09;
        kappa           0.41;
        E               9.8;
        value           nonuniform List<scalar> 
50
(
1.90476e-05
2.1683e-05
2.32499e-05
2.42263e-05
2.44712e-05
2.48872e-05
2.59058e-05
3.15228e-05
3.80212e-05
4.00431e-05
3.48673e-05
3.08268e-05
3.48648e-05
4.37515e-05
5.36754e-05
5.1688e-05
5.28092e-05
5.37067e-05
5.36708e-05
5.23259e-05
5.10981e-05
5.34102e-05
5.96617e-05
6.50949e-05
7.64974e-05
8.02329e-05
8.14364e-05
8.09718e-05
7.87868e-05
7.42709e-05
6.66803e-05
5.69265e-05
5.37716e-05
5.24344e-05
5.17052e-05
5.13004e-05
5.11522e-05
5.12356e-05
5.1827e-05
5.45079e-05
5.79882e-05
6.08946e-05
6.10973e-05
6.01187e-05
5.88179e-05
5.75745e-05
5.66455e-05
5.67344e-05
5.77236e-05
5.66103e-05
)
;
    }
    lowerWall
    {
        type            nutkWallFunction;
        blending        stepwise;
        Cmu             0.09;
        kappa           0.41;
        E               9.8;
        value           nonuniform List<scalar> 
62
(
4.08987e-06
5.02889e-06
5.81586e-06
6.38516e-06
6.83086e-06
7.20492e-06
7.53423e-06
7.82752e-06
8.08625e-06
8.31007e-06
8.49962e-06
8.6578e-06
8.79144e-06
8.91542e-06
9.05252e-06
9.20213e-06
9.37997e-06
9.54548e-06
9.63883e-06
9.54109e-06
9.00076e-06
7.59282e-06
4.77567e-06
4.77567e-06
1.44473e-05
1.64462e-05
1.80242e-05
1.98255e-05
2.28757e-05
2.79047e-05
3.55832e-05
4.04165e-05
3.50683e-05
3.31027e-05
3.85259e-05
1.21247e-05
3.70675e-05
4.06125e-05
4.27107e-05
4.41643e-05
4.51684e-05
4.58163e-05
4.61554e-05
1.21247e-05
1.29906e-05
1.44373e-05
1.55039e-05
1.62277e-05
1.67212e-05
1.71518e-05
1.75339e-05
1.78041e-05
1.79063e-05
1.76082e-05
1.67227e-05
1.53566e-05
1.44243e-05
1.396e-05
1.35535e-05
1.28744e-05
1.1183e-05
8.50806e-06
)
;
    }
    atmosphere
    {
        type            calculated;
        value           nonuniform List<scalar> 
46
(
0.00020894
0.00165004
0.00311682
0.0043698
0.00541246
0.00626416
0.00694908
0.00749255
0.00791865
0.00824891
0.00850234
0.00869593
0.00884388
0.009
0.009
0.009
0.009
0.009
0.009
0.009
0.009
0.009
0.009
0.009
0.009
0.009
0.009
0.009
0.009
0.009
0.009
0.009
0.009
0.009
0.009
0.00790282
0.00810425
0.00822533
0.00821347
0.00806622
0.00778602
0.00737139
0.009
0.009
0.009
0.000457982
)
;
    }
    defaultFaces
    {
        type            empty;
    }
}


// ************************************************************************* //
