/*--------------------------------*- C++ -*----------------------------------*\
| =========                 |                                                 |
| \\      /  F ield         | OpenFOAM: The Open Source CFD Toolbox           |
|  \\    /   O peration     | Version:  v2012                                 |
|   \\  /    A nd           | Website:  www.openfoam.com                      |
|    \\/     M anipulation  |                                                 |
\*---------------------------------------------------------------------------*/
FoamFile
{
    version     2.0;
    format      ascii;
    class       volScalarField;
    location    "0.9";
    object      p;
}
// * * * * * * * * * * * * * * * * * * * * * * * * * * * * * * * * * * * * * //

dimensions      [1 -1 -2 0 0 0 0];


internalField   nonuniform List<scalar> 
2268
(
877.029
870.678
863.001
854.619
846.54
839.18
832.965
828.307
825.569
825.02
826.808
830.94
837.268
845.498
855.182
865.563
875.332
882.744
885.081
878.994
864.375
846.512
835.382
819.667
812.818
804.862
796.535
788.54
781.158
774.837
770.029
767.127
766.407
768.005
771.924
778.015
785.945
795.261
805.156
814.645
821.473
823.011
816.353
801.568
784.366
774.022
761.501
754.38
746.488
738.312
730.335
722.861
716.39
711.411
708.343
707.465
708.908
712.66
718.556
726.237
735.155
744.508
753.254
759.514
760.51
753.321
737.919
720.685
710.281
702.768
695.445
687.715
679.621
671.541
663.875
657.186
652.002
648.764
647.757
649.105
652.789
658.634
666.262
675.071
684.259
692.754
698.808
699.583
691.682
674.686
655.649
644.329
643.707
636.223
628.564
620.405
612.095
604.14
597.168
591.752
588.345
587.236
588.551
592.275
598.231
606.022
615.024
624.424
633.131
639.455
640.217
631.105
611.374
589.563
576.324
584.363
576.784
569.078
560.698
552.033
543.694
536.38
530.702
527.122
525.933
527.267
531.124
537.34
545.503
554.951
564.851
574.06
580.896
581.637
570.733
547.389
522.561
506.041
524.738
517.149
509.284
500.532
491.389
482.573
474.86
468.892
465.134
463.879
465.272
469.345
475.959
484.687
494.795
505.408
515.278
522.703
523.256
509.897
481.86
452.889
433.491
464.87
457.38
449.233
439.974
430.241
420.869
412.709
406.429
402.491
401.182
402.668
407.028
414.163
423.608
434.471
445.945
456.463
464.275
464.24
447.605
412.838
375.846
357.738
1011.51
980.629
899.594
777.939
676.891
617.04
587.448
574.466
574.634
589.619
612.178
616.763
586.391
541.515
499.67
470.157
451.39
438.049
440.583
981.905
933.848
838.156
705.301
603.744
547.393
519.989
506.33
503.571
516.219
538.99
550.229
523.893
478.981
436.206
406.383
388.175
377.535
384.911
955.205
871.803
755.449
621.808
526.707
477.081
453.46
438.539
430.91
438.865
462.737
484.003
461.489
415.151
370.325
340.114
324.736
321.79
330.303
908.212
791.135
660.363
532.137
443.185
410.819
399.665
386.175
370.682
371.923
395.554
425.297
402.811
351.43
300.323
267.109
256.399
264.943
277.344
834.975
698.104
562.791
443.377
381.458
377.292
376.799
365.695
347.244
342.374
361.686
385.267
349.135
284.452
224.885
191.173
181.898
198.488
223.183
735.871
598.79
469.542
377.08
356.468
365.483
370.762
361.371
342.375
334.928
356.975
370.258
308.314
218.5
166.425
148.011
140.173
139.556
165.993
616.227
498.69
384.333
326.287
335.874
350.802
362.609
355.384
334.152
326.825
348.768
351.134
275.802
180.095
146.591
137.345
129.746
119.876
124.892
481.356
403.483
308.86
282.409
299.209
319.802
341.595
346.541
324.546
316.319
324.603
305.103
238.03
165.438
140.441
133.232
124.978
115.321
112.298
371.098
363.852
354.971
344.679
333.827
323.444
314.497
307.691
303.459
302.066
303.718
308.621
316.765
327.569
339.75
352.869
364.141
372.253
371.675
349.621
301.832
244.331
187.214
243.877
235.894
224.974
211.984
198.417
185.738
175.186
167.451
162.708
161.071
162.859
168.765
179.11
193.468
210.175
224.531
233.826
242.913
250.76
229.231
174.029
114.06
62.592
117.879
108.88
97.1008
83.5403
70.4761
59.5156
51.4391
46.1575
43.0971
41.9125
42.6401
46.0579
53.0049
64.8511
81.6892
96.5869
108.335
129.95
149.835
130.512
81.5648
44.9931
20.0295
28.354
22.6357
16.8197
11.0778
6.70286
3.86541
2.22234
1.34975
0.921599
0.779855
0.877284
1.29927
2.27548
4.56563
9.66101
16.9326
30.7399
61.2939
80.1326
67.1098
35.6409
24.1236
25.4815
-0.343287
-0.590709
-0.477471
-0.463819
-0.452516
-0.446245
-0.44541
-0.444476
-0.436946
-0.418505
-0.382349
-0.315386
-0.194997
0.0107392
0.434514
1.79525
6.55649
18.3014
35.8344
38.6222
27.5169
23.2304
19.5379
-0.825192
-0.8511
-0.821477
-0.800819
-0.772126
-0.738965
-0.704701
-0.67099
-0.637028
-0.60001
-0.55596
-0.499361
-0.426135
-0.357259
-0.323311
-0.206356
0.527221
3.45008
12.4432
25.0489
25.2931
22.7551
21.4946
-0.963282
-0.964159
-0.943541
-0.924298
-0.898909
-0.87112
-0.842557
-0.813463
-0.782465
-0.747093
-0.704706
-0.652726
-0.591122
-0.543729
-0.574617
-0.722687
-0.83221
-0.0707191
2.85328
10.7243
16.8797
19.4234
21.346
-1.08858
-1.08508
-1.06841
-1.05222
-1.03296
-1.01271
-0.991824
-0.970028
-0.946462
-0.920132
-0.891095
-0.861935
-0.840583
-0.851838
-0.949007
-1.17487
-1.47837
-1.69931
-0.988047
2.75531
7.964
13.1004
21.0106
-1.22491
-1.22122
-1.20965
-1.19746
-1.18281
-1.16734
-1.15163
-1.13598
-1.12044
-1.10543
-1.09327
-1.09016
-1.10857
-1.17236
-1.31949
-1.57753
-1.91454
-2.2293
-2.28638
-1.22079
1.2403
4.16196
13.2198
-1.36468
-1.36086
-1.35332
-1.34411
-1.33348
-1.32259
-1.31226
-1.30322
-1.29611
-1.29228
-1.29511
-1.3118
-1.35465
-1.44254
-1.5995
-1.83926
-2.13047
-2.3786
-2.49682
-2.48258
-1.95018
-2.24541
1.08203
-1.5059
-1.50249
-1.49726
-1.49096
-1.48417
-1.47783
-1.47284
-1.47014
-1.47075
-1.47641
-1.49062
-1.51996
-1.57457
-1.66765
-1.81259
-2.01501
-2.25605
-2.47726
-2.61556
-2.62914
-2.70087
-2.51688
-3.72342
-1.64948
-1.64674
-1.6432
-1.63929
-1.63567
-1.63317
-1.63271
-1.63533
-1.6422
-1.65509
-1.67711
-1.71355
-1.77205
-1.86149
-1.98924
-2.15623
-2.35092
-2.54331
-2.69201
-2.76526
-2.76187
-2.90536
-3.59253
-1.79458
-1.79245
-1.79016
-1.7881
-1.78697
-1.78751
-1.79062
-1.79732
-1.8088
-1.82667
-1.85348
-1.89316
-1.95106
-2.03309
-2.14346
-2.28166
-2.43945
-2.60026
-2.74334
-2.85419
-2.9391
-2.9963
-2.88094
-1.93998
-1.93833
-1.93693
-1.93633
-1.93714
-1.94003
-1.94579
-1.95538
-1.96987
-1.99072
-2.01991
-2.06022
-2.11516
-2.18852
-2.28279
-2.39727
-2.52662
-2.66079
-2.78839
-2.90172
-3.00234
-3.08538
-3.11427
-2.08506
-2.08375
-2.08299
-2.08349
-2.08578
-2.09039
-2.098
-2.10943
-2.12561
-2.14777
-2.17748
-2.21668
-2.26756
-2.33233
-2.41244
-2.5073
-2.61359
-2.72532
-2.83539
-2.93831
-3.03281
-3.1192
-3.19159
-2.22943
-2.22836
-2.22807
-2.22938
-2.23274
-2.23853
-2.24731
-2.25976
-2.27664
-2.2989
-2.32779
-2.36473
-2.41105
-2.46791
-2.53599
-2.61479
-2.70216
-2.79437
-2.88684
-2.97531
-3.05702
-3.1299
-3.18893
-2.37286
-2.37197
-2.37203
-2.37392
-2.37799
-2.38452
-2.39393
-2.40677
-2.42363
-2.44523
-2.47248
-2.50645
-2.54802
-2.59772
-2.65569
-2.7214
-2.79337
-2.8691
-2.94543
-3.01905
-3.08703
-3.14635
-3.19295
-2.51518
-2.51441
-2.51472
-2.51703
-2.52155
-2.52845
-2.53804
-2.5508
-2.56716
-2.58763
-2.61285
-2.64357
-2.6804
-2.7236
-2.77301
-2.82804
-2.88754
-2.94974
-3.01234
-3.07275
-3.12832
-3.17627
-3.21306
-2.65627
-2.65556
-2.65602
-2.65859
-2.66336
-2.67036
-2.67982
-2.69212
-2.70765
-2.72673
-2.74979
-2.77728
-2.80963
-2.84697
-2.88906
-2.93528
-2.98469
-3.03594
-3.08726
-3.13663
-3.18179
-3.22036
-3.2493
-2.79603
-2.7953
-2.79582
-2.7985
-2.80335
-2.81027
-2.81937
-2.83099
-2.84544
-2.86299
-2.88388
-2.90835
-2.93664
-2.96881
-3.00462
-3.04351
-3.0847
-3.12709
-3.16929
-3.20968
-3.24639
-3.27743
-3.30031
-2.93444
-2.93362
-2.93409
-2.93675
-2.94153
-2.94823
-2.95687
-2.96767
-2.98093
-2.99687
-3.01564
-3.03733
-3.06204
-3.08973
-3.12017
-3.15293
-3.18733
-3.2225
-3.25732
-3.29047
-3.32042
-3.34554
-3.36386
-3.07156
-3.07063
-3.07097
-3.07345
-3.07802
-3.0844
-3.0925
-3.10247
-3.11452
-3.12885
-3.14557
-3.16472
-3.18627
-3.21011
-3.23601
-3.26362
-3.29238
-3.32161
-3.35041
-3.3777
-3.40227
-3.42279
-3.43771
-3.20755
-3.20649
-3.20663
-3.20885
-3.21306
-3.219
-3.22653
-3.23568
-3.24658
-3.25938
-3.27418
-3.29099
-3.30974
-3.33027
-3.35235
-3.37565
-3.39975
-3.42408
-3.44795
-3.47052
-3.4908
-3.50778
-3.52024
-3.34255
-3.34137
-3.34131
-3.34318
-3.34695
-3.35235
-3.35925
-3.3676
-3.37742
-3.38882
-3.40187
-3.41657
-3.43283
-3.45049
-3.46933
-3.48904
-3.50928
-3.5296
-3.54946
-3.56821
-3.5851
-3.59934
-3.61004
-3.4767
-3.47544
-3.47518
-3.47669
-3.47994
-3.48473
-3.49095
-3.49849
-3.50732
-3.51747
-3.52895
-3.54176
-3.55583
-3.57099
-3.58705
-3.60374
-3.62077
-3.63777
-3.65435
-3.67
-3.68417
-3.69625
-3.70561
-3.61008
-3.60877
-3.60836
-3.60952
-3.61225
-3.61641
-3.62191
-3.62864
-3.63653
-3.64553
-3.65563
-3.6668
-3.67894
-3.69193
-3.7056
-3.71971
-3.73403
-3.74826
-3.7621
-3.77519
-3.7871
-3.79741
-3.80566
-3.74272
-3.74139
-3.74088
-3.74175
-3.744
-3.74755
-3.75233
-3.75825
-3.76523
-3.77319
-3.78207
-3.7918
-3.80229
-3.81342
-3.82504
-3.83696
-3.84898
-3.86088
-3.87243
-3.88336
-3.89336
-3.90215
-3.90942
-3.87462
-3.87332
-3.87275
-3.87339
-3.87524
-3.87823
-3.88233
-3.88747
-3.89359
-3.90058
-3.90837
-3.91685
-3.92592
-3.93548
-3.94538
-3.95547
-3.96558
-3.97554
-3.98517
-3.99429
-4.0027
-4.01018
-4.01656
-4.00581
-4.00455
-4.00395
-4.00442
-4.00594
-4.00846
-4.01194
-4.01637
-4.02168
-4.02778
-4.03457
-4.04196
-4.04983
-4.05807
-4.06654
-4.07513
-4.08368
-4.09205
-4.10013
-4.10779
-4.11487
-4.12127
-4.12686
-4.13628
-4.13507
-4.13447
-4.13482
-4.13609
-4.13821
-4.14117
-4.14496
-4.14953
-4.15481
-4.16071
-4.16712
-4.17395
-4.18107
-4.18837
-4.19573
-4.20302
-4.21014
-4.217
-4.22348
-4.22951
-4.23501
-4.23993
-4.26607
-4.26492
-4.26434
-4.2646
-4.26567
-4.26747
-4.26999
-4.27323
-4.27714
-4.28167
-4.28676
-4.2923
-4.29821
-4.30437
-4.31068
-4.31702
-4.32331
-4.32943
-4.33532
-4.34089
-4.3461
-4.35088
-4.35523
-4.39524
-4.39415
-4.39359
-4.39379
-4.39469
-4.39624
-4.39839
-4.40115
-4.40448
-4.40835
-4.4127
-4.41746
-4.42254
-4.42786
-4.43331
-4.4388
-4.44425
-4.44957
-4.45469
-4.45955
-4.4641
-4.46831
-4.47217
-4.52385
-4.52283
-4.52229
-4.52244
-4.52321
-4.52453
-4.52638
-4.52872
-4.53155
-4.53483
-4.53852
-4.54257
-4.5469
-4.55146
-4.55615
-4.5609
-4.56564
-4.57028
-4.57477
-4.57904
-4.58306
-4.5868
-4.59024
-4.65197
-4.65102
-4.65051
-4.65062
-4.65128
-4.65241
-4.65398
-4.65597
-4.65835
-4.6611
-4.6642
-4.6676
-4.67126
-4.67512
-4.67913
-4.68322
-4.68733
-4.69138
-4.69532
-4.69909
-4.70267
-4.70599
-4.70906
-4.77967
-4.7788
-4.77833
-4.77841
-4.77896
-4.77992
-4.78124
-4.78291
-4.78489
-4.78717
-4.78973
-4.79254
-4.79558
-4.79882
-4.80222
-4.80571
-4.80925
-4.81277
-4.81621
-4.81954
-4.82271
-4.82567
-4.82839
-4.90703
-4.90624
-4.90583
-4.90587
-4.90633
-4.90713
-4.90822
-4.90959
-4.91121
-4.91306
-4.91512
-4.9174
-4.91988
-4.92255
-4.92539
-4.92835
-4.93136
-4.93439
-4.93738
-4.9403
-4.94309
-4.94571
-4.94811
-5.03409
-5.03341
-5.03305
-5.03308
-5.03344
-5.03408
-5.03497
-5.03606
-5.03734
-5.03879
-5.0404
-5.04218
-5.04414
-5.0463
-5.04865
-5.05111
-5.05365
-5.05623
-5.05879
-5.06132
-5.06376
-5.06605
-5.06815
-5.16091
-5.16036
-5.16007
-5.16007
-5.16035
-5.16085
-5.16153
-5.16236
-5.16332
-5.16439
-5.16558
-5.16688
-5.16835
-5.17005
-5.17198
-5.17402
-5.17613
-5.17829
-5.18045
-5.1826
-5.1847
-5.18667
-5.18847
-5.28752
-5.28711
-5.2869
-5.28689
-5.28708
-5.28744
-5.28793
-5.28852
-5.28918
-5.2899
-5.29068
-5.29152
-5.2925
-5.29379
-5.29539
-5.29708
-5.29881
-5.30057
-5.30236
-5.30415
-5.3059
-5.30756
-5.30908
-5.41394
-5.41371
-5.41357
-5.41356
-5.41369
-5.41394
-5.41426
-5.41461
-5.41499
-5.41536
-5.41572
-5.41605
-5.41639
-5.41737
-5.41887
-5.42031
-5.4217
-5.42311
-5.42454
-5.42598
-5.4274
-5.42876
-5.42998
-5.54019
-5.54015
-5.54014
-5.54017
-5.54029
-5.54046
-5.54062
-5.54077
-5.54086
-5.54086
-5.54073
-5.5403
-5.53954
-5.54034
-5.54233
-5.54373
-5.54484
-5.54591
-5.54701
-5.54811
-5.54922
-5.55027
-5.55122
-5.66624
-5.66641
-5.66652
-5.66663
-5.66673
-5.66681
-5.66684
-5.66681
-5.66669
-5.66644
-5.666
-5.66507
-5.66332
-5.66313
-5.6659
-5.66719
-5.66796
-5.66865
-5.66937
-5.67011
-5.67087
-5.6716
-5.67227
136.616
126.77
133.48
109.761
26.5141
23.0698
53.9545
104.171
30.4461
58.2134
103.605
145.808
26.4954
52.4998
88.6183
114.136
19.6927
27.4683
37.6794
45.2608
20.9937
20.2548
19.9486
20.6153
21.7405
21.7977
21.7381
22.0664
22.2142
22.5447
22.8535
23.2001
20.6421
22.1989
22.8739
23.4542
9.68152
16.4546
19.4911
21.2804
-5.90123
-2.85921
2.73405
5.8618
-3.20159
-1.94246
-3.10012
-4.66227
-3.01487
-3.74335
-4.49462
-4.42295
-3.15184
-3.16599
-3.14067
-3.10141
-3.25522
-3.28643
-3.29029
-3.25564
-3.2214
-3.23698
-3.24622
-3.24489
-3.21516
-3.22348
-3.22734
-3.22714
-3.2284
-3.23269
-3.23321
-3.23139
-3.26029
-3.26268
-3.26183
-3.25929
-3.30861
-3.31016
-3.30895
-3.30637
-3.3705
-3.37176
-3.37067
-3.36839
-3.44328
-3.44456
-3.44385
-3.44209
-3.52526
-3.52677
-3.52658
-3.52544
-3.61494
-3.61685
-3.61729
-3.61679
-3.71059
-3.71297
-3.71413
-3.71434
-3.81066
-3.81349
-3.81538
-3.81637
-3.9143
-3.91742
-3.91993
-3.92166
-4.02117
-4.02439
-4.02729
-4.02958
-4.13111
-4.13422
-4.13724
-4.13983
-4.24377
-4.24665
-4.24956
-4.25218
-4.35867
-4.36124
-4.36388
-4.36634
-4.47522
-4.47746
-4.47977
-4.48197
-4.59292
-4.59484
-4.59682
-4.59872
-4.71139
-4.71302
-4.71469
-4.7163
-4.83039
-4.83176
-4.83315
-4.8345
-4.9498
-4.95093
-4.95208
-4.95319
-5.06956
-5.07048
-5.07141
-5.07231
-5.18964
-5.19037
-5.1911
-5.19183
-5.31001
-5.31058
-5.31114
-5.31171
-5.4307
-5.43112
-5.43153
-5.43196
-5.55179
-5.5521
-5.55239
-5.55268
-5.67267
-5.6729
-5.6731
-5.67329
255.496
278.314
245.318
241.018
251.135
270.645
296.399
309.923
306.076
299.256
292.505
244.408
176.004
144.824
133.26
127.91
116.721
107.091
106.117
183.76
202.234
204.494
207.884
219.995
241.261
258.856
270.818
277.405
269.912
249.152
192.191
137.192
122.882
120.786
117.919
102.563
90.0942
91.0227
171.87
161.802
165.967
168.333
188.806
214.425
223.198
230.647
239.561
225.76
188.651
135.042
112.884
106.922
105.004
98.4321
82.4765
71.4029
77.4547
124.104
106.094
112.54
131.179
156.195
173.841
171.595
169.27
173.108
158.975
128.784
87.6286
84.6998
88.2255
82.2134
69.4755
52.5243
54.7621
66.827
53.4778
49.5632
62.6333
96.3679
127.458
123.781
106.062
93.4503
88.9424
94.9212
88.4743
55.3861
46.7847
57.6112
52.6442
43.178
38.9407
42.6948
54.3681
22.441
27.5779
41.4884
63.2521
80.024
74.6652
53.2008
32.6623
30.9024
48.9636
58.4178
28.0223
18.8186
22.7085
29.4515
31.4569
31.4345
34.137
40.4618
23.292
26.1039
30.9494
39.0668
46.6768
44.2001
28.4814
12.3939
14.1182
24.2502
21.616
6.80463
4.62199
5.17079
18.2633
23.5724
24.7928
27.1869
31.0298
23.9352
25.4742
27.8024
30.4566
31.4195
22.6242
13.6464
11.7817
13.0294
9.84485
5.00891
4.08757
0.763842
1.23512
15.152
19.1959
19.2133
20.0668
22.9719
24.2733
25.7268
27.4196
27.7346
23.8521
19.1657
15.8478
12.5448
7.75539
2.33281
1.95727
2.5805
2.0927
3.36088
10.3856
15.2797
14.3149
13.2324
15.3545
22.6579
24.0806
24.6214
23.9175
21.3935
17.1443
11.6595
5.74462
1.51491
0.622336
0.806144
1.33344
1.56241
1.78859
4.08393
7.654
8.27842
7.61133
8.8631
10.6812
14.4329
15.737
14.947
10.9385
6.81049
2.51435
-0.258162
-0.517965
-0.707005
-0.241093
-0.0539802
-0.160385
-0.879317
-0.272349
0.949629
2.53354
2.60443
4.03731
-3.32967
-0.60593
0.718773
0.807909
-0.612909
-1.35413
-1.10947
-1.10628
-1.84746
-1.40952
-1.18786
-1.30242
-1.46306
-1.28812
-1.54367
-1.33837
-0.193444
-0.411556
1.1278
-3.50869
-3.00316
-2.97772
-2.67959
-2.50632
-2.8296
-2.92571
-2.34683
-2.05503
-1.8528
-1.80005
-1.96124
-2.15845
-2.50178
-2.47422
-1.7379
-1.32231
-1.54869
-0.870767
-3.23328
-3.65513
-3.59767
-3.39026
-3.0945
-2.72149
-2.53662
-2.41677
-2.23093
-2.11579
-2.09271
-2.14266
-2.2531
-2.35583
-2.26383
-1.95378
-1.83533
-1.98983
-2.14563
-3.18343
-3.15633
-3.04828
-2.92112
-2.79092
-2.67519
-2.5817
-2.46714
-2.33987
-2.27549
-2.24963
-2.26883
-2.33077
-2.36126
-2.29504
-2.18374
-2.18189
-2.24164
-2.50769
-3.22612
-3.18932
-3.10541
-2.99681
-2.87726
-2.75793
-2.64545
-2.53394
-2.44357
-2.39367
-2.37376
-2.38834
-2.43061
-2.45708
-2.43855
-2.40558
-2.41889
-2.43078
-2.57405
-3.22225
-3.19347
-3.12609
-3.03485
-2.93114
-2.8225
-2.71867
-2.62613
-2.55605
-2.51466
-2.5009
-2.51595
-2.5503
-2.57742
-2.58104
-2.56804
-2.56778
-2.55709
-2.57135
-3.22643
-3.2011
-3.14638
-3.07203
-2.98707
-2.89745
-2.81133
-2.73621
-2.68037
-2.64655
-2.636
-2.64815
-2.67321
-2.69299
-2.69571
-2.68189
-2.66384
-2.62425
-2.57755
-3.25381
-3.23221
-3.18849
-3.1289
-3.06043
-2.98825
-2.91854
-2.8576
-2.81174
-2.7838
-2.77358
-2.77914
-2.79252
-2.80052
-2.79376
-2.77089
-2.73805
-2.68023
-2.61628
-3.30124
-3.28375
-3.24933
-3.20212
-3.14749
-3.08975
-3.03365
-2.98408
-2.94562
-2.92103
-2.90901
-2.90685
-2.90837
-2.90397
-2.88597
-2.85255
-2.80669
-2.73826
-2.6698
-3.36395
-3.35009
-3.32318
-3.28611
-3.24291
-3.197
-3.15198
-3.11151
-3.07881
-3.05567
-3.04101
-3.03192
-3.02342
-3.0084
-2.98055
-2.9374
-2.87905
-2.80272
-2.72847
-3.4386
-3.42779
-3.40689
-3.37794
-3.34395
-3.30752
-3.27132
-3.23802
-3.20979
-3.18756
-3.17047
-3.15608
-3.14042
-3.11807
-3.08375
-3.03365
-2.96421
-2.88101
-2.78383
-3.52295
-3.51471
-3.49858
-3.47604
-3.4493
-3.42031
-3.39101
-3.36329
-3.33857
-3.31732
-3.29878
-3.28115
-3.26158
-3.23611
-3.2003
-3.14923
-3.07703
-2.99497
-2.83792
-3.61523
-3.60912
-3.59676
-3.57921
-3.55811
-3.53492
-3.51102
-3.4877
-3.4659
-3.4459
-3.42716
-3.40849
-3.38815
-3.36371
-3.33204
-3.28898
-3.23146
-3.1786
-3.01768
-3.71369
-3.70937
-3.69999
-3.68632
-3.66963
-3.651
-3.6314
-3.6117
-3.59253
-3.57415
-3.55631
-3.53844
-3.51981
-3.49939
-3.47571
-3.44699
-3.41694
-3.4193
-3.2786
-3.8167
-3.81395
-3.80696
-3.79637
-3.78316
-3.76818
-3.75211
-3.73551
-3.71883
-3.70237
-3.6862
-3.67032
-3.65477
-3.63955
-3.62433
-3.60901
-3.59898
-3.62548
-3.50935
-3.923
-3.92164
-3.91667
-3.90858
-3.89819
-3.88615
-3.87299
-3.85908
-3.84476
-3.83037
-3.81625
-3.80284
-3.79074
-3.7805
-3.77231
-3.76625
-3.76517
-3.7855
-3.71245
-4.03179
-4.03164
-4.02839
-4.02241
-4.01435
-4.00471
-3.99394
-3.98232
-3.97014
-3.95777
-3.94574
-3.93477
-3.92582
-3.91976
-3.91701
-3.91763
-3.9229
-3.94153
-3.88386
-4.14263
-4.14347
-4.14167
-4.13749
-4.13137
-4.12372
-4.11489
-4.10515
-4.0948
-4.08423
-4.07409
-4.06526
-4.05883
-4.05588
-4.05701
-4.06235
-4.07244
-4.09113
-4.04013
-4.25525
-4.25682
-4.25621
-4.25353
-4.24905
-4.24303
-4.23579
-4.22757
-4.21869
-4.20961
-4.20102
-4.19384
-4.18917
-4.18817
-4.1916
-4.1998
-4.21299
-4.23127
-4.18006
-4.36941
-4.37144
-4.37174
-4.37028
-4.36715
-4.36251
-4.35657
-4.34958
-4.34185
-4.3339
-4.32644
-4.32037
-4.31667
-4.31644
-4.32062
-4.32995
-4.34467
-4.36255
-4.32133
-4.48484
-4.48712
-4.48804
-4.48752
-4.48549
-4.48199
-4.47716
-4.47117
-4.46435
-4.45721
-4.45048
-4.44495
-4.44145
-4.44092
-4.44432
-4.45263
-4.46622
-4.47986
-4.47053
-4.6013
-4.60363
-4.60495
-4.60509
-4.60392
-4.60136
-4.59746
-4.59234
-4.58628
-4.57973
-4.57336
-4.56787
-4.56392
-4.56216
-4.5633
-4.56798
-4.57538
-4.57367
-4.55422
-4.71856
-4.72081
-4.72233
-4.72291
-4.72237
-4.72056
-4.71746
-4.71312
-4.70771
-4.7016
-4.69535
-4.68957
-4.68471
-4.68118
-4.67918
-4.67851
-4.67672
-4.65617
-4.60587
-4.83645
-4.83854
-4.84011
-4.84096
-4.84087
-4.83966
-4.83725
-4.83361
-4.82879
-4.82302
-4.81676
-4.81052
-4.80467
-4.79941
-4.79438
-4.78855
-4.7784
-4.74692
-4.6862
-4.95486
-4.95675
-4.95828
-4.95926
-4.95949
-4.95878
-4.957
-4.95403
-4.94978
-4.9443
-4.93791
-4.93129
-4.92483
-4.91833
-4.91117
-4.90192
-4.88658
-4.85088
-4.78906
-5.07373
-5.0754
-5.07682
-5.07785
-5.07831
-5.07804
-5.07688
-5.07465
-5.07101
-5.06588
-5.05958
-5.05303
-5.04637
-5.03932
-5.031
-5.02069
-5.0059
-4.96937
-4.90732
-5.19302
-5.19447
-5.19574
-5.19675
-5.19736
-5.19748
-5.19698
-5.19563
-5.19269
-5.18801
-5.18223
-5.17584
-5.16918
-5.1622
-5.15455
-5.14695
-5.13544
-5.10155
-5.03883
-5.31269
-5.31392
-5.31502
-5.31595
-5.31664
-5.31706
-5.31724
-5.31702
-5.3149
-5.31045
-5.30517
-5.29899
-5.29229
-5.28517
-5.27889
-5.27607
-5.27045
-5.24099
-5.18263
-5.43277
-5.43375
-5.43462
-5.43538
-5.43602
-5.43663
-5.4376
-5.43929
-5.43873
-5.43371
-5.42813
-5.42215
-5.41515
-5.40719
-5.39994
-5.39963
-5.40527
-5.38526
-5.34238
-5.55322
-5.55386
-5.55438
-5.55479
-5.55517
-5.55587
-5.55826
-5.56445
-5.56728
-5.55989
-5.55279
-5.54594
-5.53785
-5.52733
-5.5149
-5.51619
-5.54436
-5.55428
-5.56001
-5.6736
-5.67382
-5.67381
-5.67364
-5.67353
-5.67414
-5.6783
-5.6947
-5.69303
-5.68336
-5.67631
-5.67023
-5.66311
-5.65182
-5.63156
-5.63241
-5.69189
-5.77514
-5.85811
)
;

boundaryField
{
    leftWall
    {
        type            calculated;
        value           nonuniform List<scalar> 
50
(
877.029
819.667
761.501
702.768
643.707
584.363
524.738
464.87
371.098
243.877
117.879
28.354
-0.343287
-0.825192
-0.963282
-1.08858
-1.22491
-1.36468
-1.5059
-1.64948
-1.79458
-1.93998
-2.08506
-2.22943
-2.37286
-2.51518
-2.65627
-2.79603
-2.93444
-3.07156
-3.20755
-3.34255
-3.4767
-3.61008
-3.74272
-3.87462
-4.00581
-4.13628
-4.26607
-4.39524
-4.52385
-4.65197
-4.77967
-4.90703
-5.03409
-5.16091
-5.28752
-5.41394
-5.54019
-5.66624
)
;
    }
    rightWall
    {
        type            calculated;
        value           nonuniform List<scalar> 
50
(
440.583
384.911
330.303
277.344
223.183
165.993
124.892
112.298
106.117
91.0227
77.4547
66.827
54.3681
40.4618
31.0298
22.9719
15.3545
8.8631
4.03731
1.1278
-0.870767
-2.14563
-2.50769
-2.57405
-2.57135
-2.57755
-2.61628
-2.6698
-2.72847
-2.78383
-2.83792
-3.01768
-3.2786
-3.50935
-3.71245
-3.88386
-4.04013
-4.18006
-4.32133
-4.47053
-4.55422
-4.60587
-4.6862
-4.78906
-4.90732
-5.03883
-5.18263
-5.34238
-5.56001
-5.85811
)
;
    }
    lowerWall
    {
        type            calculated;
        value           nonuniform List<scalar> 
62
(
906.458
900.107
892.431
884.048
875.969
868.609
862.395
857.736
854.998
854.45
856.237
860.37
866.697
874.928
884.611
894.868
903.767
910.983
913.321
907.233
892.615
875.545
864.8
835.382
774.022
710.281
644.329
576.324
506.041
433.491
357.738
192.22
182.396
192.446
171.402
1011.51
981.905
955.205
908.212
834.975
735.871
616.227
481.356
1025.94
1006.09
928.933
807.101
705.972
646.171
616.776
603.788
603.608
617.437
639.764
644.339
613.684
568.522
526.625
497.08
478.925
465.622
468.503
)
;
    }
    atmosphere
    {
        type            calculated;
        value           nonuniform List<scalar> 
46
(
-5.72904
-5.72904
-5.72904
-5.72904
-5.72904
-5.72904
-5.72904
-5.72904
-5.72904
-5.72904
-5.72904
-5.72904
-5.72904
-5.72905
-5.72912
-5.72929
-5.72957
-5.72994
-5.73039
-5.73092
-5.73148
-5.73205
-5.73257
-5.73289
-5.73308
-5.73327
-5.73343
-5.73366
-5.73363
-5.7332
-5.73245
-5.73149
-5.7305
-5.72965
-5.7291
-5.72904
-5.72904
-5.72904
-5.72904
-5.72905
-5.72905
-5.72905
-5.72997
-5.73589
-5.74132
-6.10556
)
;
    }
    defaultFaces
    {
        type            empty;
    }
}


// ************************************************************************* //
