/*--------------------------------*- C++ -*----------------------------------*\
| =========                 |                                                 |
| \\      /  F ield         | OpenFOAM: The Open Source CFD Toolbox           |
|  \\    /   O peration     | Version:  v2012                                 |
|   \\  /    A nd           | Website:  www.openfoam.com                      |
|    \\/     M anipulation  |                                                 |
\*---------------------------------------------------------------------------*/
FoamFile
{
    version     2.0;
    format      ascii;
    class       volScalarField;
    location    "0.9";
    object      p_rgh;
}
// * * * * * * * * * * * * * * * * * * * * * * * * * * * * * * * * * * * * * //

dimensions      [1 -1 -2 0 0 0 0];


internalField   nonuniform List<scalar> 
2268
(
906.458
900.107
892.431
884.048
875.969
868.609
862.395
857.736
854.998
854.45
856.237
860.37
866.697
874.928
884.611
894.868
903.767
910.983
913.321
907.233
892.615
875.545
864.8
907.955
901.106
893.15
884.823
876.828
869.446
863.125
858.317
855.415
854.695
856.293
860.212
866.303
874.233
883.549
893.438
902.731
908.531
909.301
902.63
888.688
871.985
862.278
908.647
901.527
893.635
885.459
877.481
870.008
863.537
858.558
855.489
854.612
856.055
859.806
865.703
873.384
882.302
891.655
900.401
906.661
907.657
900.468
885.065
867.832
857.378
908.774
901.45
893.72
885.627
877.546
869.881
863.191
858.008
854.77
853.762
855.11
858.794
864.64
872.267
881.077
890.265
898.76
904.814
905.589
897.687
880.69
861.644
850.266
908.571
901.087
893.429
885.27
876.959
869.004
862.033
856.616
853.209
852.1
853.415
857.139
863.095
870.887
879.888
889.288
897.995
904.319
905.081
895.969
876.233
854.384
841.104
908.086
900.507
892.801
884.421
875.756
867.417
860.103
854.425
850.845
849.656
850.99
854.847
861.063
869.226
878.674
888.574
897.783
904.619
905.36
894.455
871.104
846.258
829.694
907.319
899.73
891.866
883.114
873.971
865.155
857.442
851.473
847.716
846.46
847.854
851.927
858.54
867.269
877.377
887.99
897.86
905.284
905.834
892.469
864.419
835.424
815.997
906.31
898.82
890.674
881.414
871.681
862.31
854.15
847.869
843.931
842.622
844.108
848.468
855.603
865.048
875.911
887.385
897.902
905.706
905.65
888.984
854.124
816.569
795.793
1025.94
1006.09
928.933
807.101
705.972
646.171
616.776
603.788
603.608
617.437
639.764
644.339
613.684
568.522
526.625
497.08
478.925
465.622
468.503
1042.94
1019.78
926.183
793.318
691.708
635.38
607.976
594.312
591.537
604.163
626.917
638.149
611.808
565.633
518.972
487.093
468.501
457.864
469.584
1097.29
1018.5
902.148
768.507
673.4
623.749
599.993
585.177
577.525
585.416
609.272
630.528
608.006
561.669
516.835
485.352
461.165
455.945
471.04
1113.29
996.365
865.748
737.519
641.478
574.318
543.016
526.208
539.124
565.191
600.356
630.346
607.935
556.546
505.312
471.557
459.485
461.257
465.699
1098.4
961.781
826.633
682.087
475.766
413.469
406.545
395.033
378.31
428.478
527.499
636.717
612.63
547.876
473.09
418.815
406.139
443.218
465.766
1057.56
920.739
786.441
541.119
393.231
401.829
406.632
397.238
378.245
370.906
393.521
517.501
521.93
453.101
279.585
209.789
206.185
306.947
453.722
996.357
878.804
761.36
516.466
383.18
414.797
412.58
397.776
376.671
369.561
422.222
448.417
339.865
242.077
167.343
158.097
150.043
140.138
267.468
920.043
842.056
720.355
441.32
514.236
624.95
587.935
401.052
373.857
373.948
561.801
579.67
332.552
189.627
164.387
157.176
148.97
139.347
136.982
904.565
897.319
888.438
878.146
867.294
856.911
847.964
841.158
836.926
835.533
837.185
842.088
850.232
861.036
873.216
886.333
897.592
905.641
904.893
882.654
834.575
762.33
678.284
902.538
894.556
883.635
870.645
857.078
844.4
833.848
826.113
821.37
819.733
821.521
827.426
837.771
852.129
868.833
882.923
891.05
895.071
897.324
881.578
829.082
724.587
626.73
898.944
867.523
816.389
751.239
680.175
613.678
560.113
522.792
499.274
488.644
491.252
513.814
557.885
620.872
678.873
706.323
677.241
587.099
554.995
658.844
650.742
562.177
691.901
434.422
348.093
247.974
157.903
93.0491
53.2621
31.3931
20.3173
14.9494
13.0606
13.748
17.8031
26.6232
46.7799
96.5148
154.758
172.675
160.61
249.837
329.998
149.521
76.1702
473.212
6.41991
2.49872
2.206
1.63508
1.18958
0.915729
0.763714
0.686482
0.656328
0.658555
0.694785
0.792661
1.0361
1.61551
2.954
6.28695
15.0895
65.5015
191.911
188.867
45.8983
31.4289
23.9191
0.775333
0.575644
0.55946
0.499456
0.463295
0.458235
0.473139
0.497858
0.527945
0.563704
0.609326
0.676598
0.794747
1.02685
1.53081
2.81828
5.58595
15.0093
89.1209
191.15
81.9458
27.6666
25.4524
0.3862
0.361496
0.374044
0.37995
0.395686
0.418162
0.444209
0.472218
0.502785
0.538079
0.581006
0.636285
0.713649
0.816767
0.989173
1.43256
2.40552
5.72436
37.6996
153.311
160.538
125.185
24.7158
0.330046
0.330499
0.346049
0.36035
0.378222
0.397726
0.418273
0.439931
0.463445
0.489775
0.518948
0.549012
0.574207
0.581173
0.561452
0.570557
0.794627
1.66273
29.0652
146.437
167.43
170.759
61.3462
0.311291
0.314607
0.326023
0.337949
0.352396
0.367765
0.383427
0.399057
0.414592
0.429607
0.441792
0.4451
0.42765
0.369721
0.247646
0.0647562
-0.0876752
-0.271609
0.766049
51.5178
172.899
171.237
153.508
0.295693
0.299468
0.306986
0.316162
0.326759
0.337636
0.34796
0.357005
0.364106
0.367944
0.36511
0.348461
0.305815
0.219316
0.0680311
-0.156461
-0.420969
-0.623529
-0.72657
0.0960669
72.4165
173.498
174.976
0.279528
0.282935
0.288163
0.294464
0.301242
0.307584
0.312572
0.315272
0.314659
0.309005
0.294791
0.265461
0.210892
0.118045
-0.0257653
-0.225222
-0.461331
-0.675537
-0.804688
-0.837796
-0.712553
39.1512
188.16
0.261131
0.263868
0.267406
0.271315
0.274935
0.277441
0.277892
0.275274
0.268407
0.255521
0.2335
0.197055
0.138568
0.0491735
-0.0783405
-0.244695
-0.438436
-0.629755
-0.777649
-0.853083
-0.855454
-0.992953
-1.73395
0.241222
0.243348
0.245647
0.247697
0.248831
0.248295
0.245181
0.238478
0.227004
0.20913
0.182317
0.142641
0.0847387
0.00272255
-0.107607
-0.245683
-0.403301
-0.563938
-0.70691
-0.817833
-0.903163
-0.960628
-0.845191
0.221012
0.222663
0.224065
0.224669
0.223853
0.22097
0.215205
0.20562
0.191121
0.170277
0.141086
0.100778
0.0458336
-0.0275214
-0.121783
-0.236241
-0.365564
-0.499706
-0.627291
-0.740626
-0.841229
-0.924241
-0.953259
0.201135
0.202445
0.203199
0.202702
0.200411
0.195802
0.18819
0.176765
0.160576
0.138419
0.108711
0.0695095
0.0186342
-0.0461347
-0.126245
-0.221105
-0.32739
-0.439121
-0.549188
-0.652101
-0.746607
-0.832972
-0.905361
0.181955
0.183023
0.18331
0.182001
0.17865
0.172857
0.164071
0.151623
0.134745
0.112483
0.0835898
0.0466564
0.000336289
-0.0565249
-0.124602
-0.203403
-0.290775
-0.382985
-0.475453
-0.56392
-0.645632
-0.718513
-0.77754
0.163723
0.164612
0.164552
0.162658
0.158585
0.152061
0.142649
0.129807
0.112945
0.0913531
0.0640953
0.0301283
-0.0114367
-0.0611425
-0.119113
-0.18482
-0.25679
-0.33252
-0.408845
-0.482473
-0.550445
-0.609774
-0.65637
0.146594
0.147363
0.14705
0.144748
0.14022
0.133328
0.123729
0.110975
0.0946103
0.0741413
0.0489201
0.0182053
-0.0186221
-0.061827
-0.111241
-0.166262
-0.225764
-0.28797
-0.350568
-0.410978
-0.466548
-0.514496
-0.551282
0.130697
0.131413
0.130945
0.128384
0.123608
0.116612
0.107152
0.0948472
0.0793224
0.0602338
0.0371814
0.0096878
-0.0226578
-0.0599998
-0.102088
-0.148311
-0.197722
-0.248968
-0.300294
-0.349662
-0.394826
-0.433391
-0.462335
0.116132
0.116865
0.116347
0.113667
0.108813
0.101896
0.0927887
0.0811742
0.0667224
0.0491683
0.0282839
0.00381079
-0.0244816
-0.0566499
-0.0924532
-0.131349
-0.172535
-0.214923
-0.257126
-0.297512
-0.334224
-0.365263
-0.388148
0.102921
0.103733
0.103265
0.100612
0.0958291
0.0891267
0.0804895
0.069685
0.0564275
0.0404873
0.0217217
2.48904e-05
-0.0246817
-0.0523708
-0.082817
-0.11557
-0.149971
-0.185141
-0.219962
-0.253111
-0.283063
-0.308184
-0.326501
0.0909901
0.0919207
0.0915869
0.089098
0.084531
0.0781558
0.0700496
0.0600814
0.0480329
0.0337041
0.0169811
-0.00216728
-0.0237132
-0.0475535
-0.0734628
-0.101065
-0.129831
-0.159057
-0.187853
-0.215152
-0.239717
-0.260237
-0.27516
0.0801999
0.0812596
0.0811142
0.0789009
0.0746822
0.0687432
0.0612132
0.0520646
0.041168
0.0283683
0.0135667
-0.00324532
-0.0219916
-0.0425214
-0.0646017
-0.087905
-0.112
-0.136331
-0.160201
-0.18277
-0.203054
-0.220029
-0.232491
0.0703927
0.0715669
0.0716294
0.0697601
0.0659958
0.0605921
0.0536909
0.0453458
0.0355186
0.0241173
0.0110692
-0.003627
-0.0198866
-0.0375492
-0.056386
-0.0761025
-0.0963395
-0.116656
-0.136515
-0.155271
-0.17216
-0.186403
-0.197097
0.0614376
0.0626974
0.0629521
0.061448
0.0581986
0.0534008
0.0471829
0.0396425
0.0308118
0.0206687
0.00918424
-0.00362872
-0.0176906
-0.0328548
-0.0489138
-0.0656069
-0.0826317
-0.0996371
-0.116212
-0.131869
-0.14603
-0.158117
-0.167476
0.0532539
0.0545633
0.0549705
0.0538105
0.0510814
0.0469162
0.0414178
0.0346901
0.0268049
0.0177991
0.00769574
-0.00346599
-0.0156076
-0.0286008
-0.0422669
-0.0563828
-0.0706968
-0.0849306
-0.0987723
-0.111861
-0.123769
-0.134077
-0.142331
0.0458086
0.0471303
0.0476422
0.0467755
0.0445232
0.0409708
0.0361926
0.0302726
0.0232939
0.0153312
0.00645202
-0.00327431
-0.0137614
-0.0248926
-0.0365135
-0.0484372
-0.060458
-0.0723578
-0.0839028
-0.0948316
-0.104838
-0.113627
-0.120894
0.0390948
0.0403966
0.040969
0.0403321
0.038484
0.0354878
0.0313903
0.0262463
0.0201313
0.0131353
0.00535174
-0.00312673
-0.012202
-0.02176
-0.0316628
-0.041752
-0.0518605
-0.0618178
-0.0714496
-0.0805715
-0.0889787
-0.096465
-0.102843
0.033108
0.0343681
0.034966
0.0344979
0.0329749
0.0304569
0.0269695
0.0225418
0.0172343
0.0111338
0.0043399
-0.0030448
-0.0109137
-0.0191518
-0.0276309
-0.036214
-0.0447624
-0.0531408
-0.0612166
-0.0688768
-0.075959
-0.0823535
-0.087945
0.0278322
0.0290387
0.0296378
0.0292896
0.0280215
0.0258989
0.022936
0.0191467
0.014576
0.00929733
0.00340116
-0.00301302
-0.00983816
-0.0169608
-0.0242613
-0.031618
-0.038913
-0.046036
-0.0528894
-0.0593712
-0.0654011
-0.0709044
-0.0758201
0.0232341
0.0243805
0.0249663
0.0247043
0.0236363
0.0218341
0.0193112
0.0160768
0.0121637
0.00762865
0.00254565
-0.00299813
-0.00890382
-0.0150656
-0.0213742
-0.0277219
-0.0340054
-0.0401302
-0.046015
-0.0515894
-0.0567927
-0.0615805
-0.0659255
0.019261
0.0203437
0.0209088
0.0207114
0.0198036
0.0182623
0.0161073
0.0133497
0.0100147
0.00614445
0.00179505
-0.00296279
-0.00804486
-0.0133593
-0.0188112
-0.0243065
-0.0297549
-0.0350735
-0.0401905
-0.045048
-0.0495989
-0.053811
-0.0576727
0.0158462
0.016863
0.0174022
0.0172556
0.0164807
0.0151579
0.0133156
0.0109692
0.0081406
0.00486112
0.00117171
-0.00287417
-0.00721071
-0.0117645
-0.0164579
-0.0212113
-0.0259465
-0.0305895
-0.0350738
-0.0393473
-0.0433686
-0.0471056
-0.050548
0.0129181
0.0138658
0.0143733
0.0142673
0.0136075
0.0124756
0.0109067
0.00892062
0.00653867
0.00378548
0.000690145
-0.00271001
-0.00636896
-0.010234
-0.0142451
-0.0183371
-0.0224426
-0.0264948
-0.0304331
-0.0342083
-0.0377794
-0.0411075
-0.0441743
0.0104072
0.0112787
0.0117466
0.0116732
0.0111177
0.0101595
0.00883664
0.00717307
0.00519097
0.00291089
0.000352881
-0.00246039
-0.00550262
-0.00874261
-0.012137
-0.0156311
-0.0191666
-0.022685
-0.0261321
-0.0294618
-0.0326312
-0.035592
-0.0383136
0.0082484
0.00903136
0.00944917
0.00940245
0.00894498
0.00814899
0.00705313
0.00568488
0.00406748
0.00221873
0.000151427
-0.00212495
-0.00460384
-0.0072777
-0.0101169
-0.0130696
-0.016084
-0.0191108
-0.0221037
-0.0250204
-0.0278171
-0.0304368
-0.0328355
0.00638244
0.00705927
0.00741526
0.00739145
0.00702776
0.00638529
0.00550278
0.00441037
0.00313184
0.0016828
7.01536e-05
-0.00170836
-0.00366699
-0.00582969
-0.00817682
-0.0106449
-0.0131844
-0.0157561
-0.0183231
-0.0208487
-0.0232898
-0.0255841
-0.0276772
0.00475961
0.00530909
0.00559377
0.00559093
0.00531651
0.00481957
0.00413939
0.00330756
0.00234774
0.00127395
8.88547e-05
-0.00121907
-0.00268627
-0.00438877
-0.00631403
-0.00835804
-0.0104695
-0.0126209
-0.0147864
-0.0169365
-0.0190314
-0.0210087
-0.0228088
0.00334368
0.0037443
0.0039551
0.00397115
0.00377825
0.00341655
0.00292634
0.0023395
0.00167946
0.000959881
0.000182608
-0.000664593
-0.00163915
-0.00293515
-0.00453287
-0.00622076
-0.00795011
-0.00971389
-0.0114998
-0.0132869
-0.0150413
-0.0167052
-0.0182179
0.00211338
0.00234616
0.00247904
0.0024978
0.00236437
0.00211736
0.00179851
0.00143938
0.0010642
0.000689654
0.000329235
7.99417e-06
-0.000340681
-0.00132083
-0.00281444
-0.00425585
-0.00565094
-0.00705819
-0.00848777
-0.00992758
-0.0113502
-0.0127047
-0.0139299
0.00105951
0.00109703
0.0011129
0.00107982
0.000958748
0.000793032
0.000623561
0.000480593
0.00039179
0.000385319
0.000516713
0.000950635
0.00171227
0.000910744
-0.0010773
-0.00247885
-0.00359021
-0.00466491
-0.0057577
-0.00686603
-0.00796784
-0.00902022
-0.00997663
0.000207698
3.24978e-05
-7.86448e-05
-0.000182445
-0.000287353
-0.000366763
-0.000399096
-0.000365762
-0.000243728
-7.45928e-07
0.000444888
0.00137217
0.00312492
0.00331647
0.00053837
-0.000749889
-0.00151759
-0.00221171
-0.00292538
-0.00366917
-0.00442645
-0.00516136
-0.00583003
610.488
600.826
636.002
635.083
666.749
670.229
701.061
754.222
801.309
829.084
874.452
917.404
920.745
946.625
982.608
1008.1
46.7259
520.354
813.955
871.6
24.0414
23.4615
56.3012
85.4935
25.1102
25.1688
25.1612
25.6034
25.89
26.2996
26.676
27.1672
25.0712
26.3443
27.1373
27.8802
188.412
45.3373
35.9005
40.2861
191.621
194.663
200.256
200.887
60.0688
206.211
204.285
198.856
-0.999456
-1.72949
-2.45983
-0.924638
-0.990842
-1.00499
-0.979677
-0.940437
-0.969007
-1.00021
-1.00408
-0.96944
-0.81001
-0.82559
-0.834826
-0.833493
-0.678579
-0.686902
-0.690759
-0.690556
-0.566627
-0.570918
-0.571437
-0.569618
-0.473323
-0.475715
-0.47486
-0.472322
-0.396446
-0.397999
-0.396782
-0.394211
-0.333141
-0.334403
-0.333313
-0.331031
-0.280732
-0.282006
-0.281297
-0.279533
-0.237511
-0.239019
-0.238833
-0.237689
-0.201998
-0.203906
-0.204346
-0.203851
-0.17245
-0.174839
-0.175993
-0.176208
-0.147334
-0.150163
-0.152051
-0.153042
-0.125771
-0.128896
-0.131409
-0.13314
-0.10745
-0.110668
-0.113572
-0.115864
-0.0921915
-0.0953091
-0.0983285
-0.100915
-0.079666
-0.0825451
-0.0854482
-0.0880681
-0.0693669
-0.0719352
-0.0745758
-0.0770372
-0.0607229
-0.0629608
-0.0652757
-0.0674742
-0.0532259
-0.0551459
-0.0571284
-0.0590299
-0.0465004
-0.0481292
-0.0498014
-0.0514136
-0.0403101
-0.0416769
-0.0430703
-0.0444189
-0.034527
-0.0356583
-0.036804
-0.0379183
-0.0290901
-0.0300103
-0.0309363
-0.0318436
-0.0239711
-0.0247048
-0.0254367
-0.0261616
-0.0191527
-0.0197231
-0.0202846
-0.0208497
-0.0146422
-0.0150639
-0.0154783
-0.0159101
-0.0105403
-0.0108535
-0.0111422
-0.0114327
-0.0062298
-0.00645433
-0.00665549
-0.00684595
785.392
789.145
438.038
364.717
410.234
639.197
664.841
598.053
366.007
360.087
607.346
583.868
405.558
177.018
162.492
156.902
156.522
136.922
135.946
836.551
639.397
357.224
361.374
534.257
696.228
713.627
724.668
429.768
346.078
652.862
618.697
279.203
159.543
157.377
178.264
165.731
146.5
127.893
944.49
743.895
541.988
676.219
754.793
678.6
706.117
770.283
557.769
426.222
705.477
650.227
173.064
151.506
149.187
173.421
157.678
145.65
122.315
1018.21
957.661
885.75
596.902
249.071
270.546
638.918
792.342
761.393
740.617
728.181
686.656
255.955
141.117
166.665
156.668
118.32
127.697
142.765
871.295
540.361
275.672
172.347
207.2
464.273
812.379
801.196
795.032
787.801
769.981
732.721
515.051
124.283
149.188
123.873
42.1739
51.4506
140.305
99.3362
44.5472
62.6091
100.453
454.69
859.61
845.673
776.647
511.927
626.982
753.613
374.17
557.171
111.334
137.544
110.815
34.6327
38.636
58.3092
27.6305
32.3705
42.2877
99.8767
626.804
907.336
716.267
182.441
50.94
323.593
157.98
13.5078
364.172
77.8878
83.165
63.3476
28.0008
30.9757
40.2318
27.8101
29.7619
34.7229
155.691
307.911
184.025
36.523
35.895
48.6
217.572
10.8599
11.1797
8.12024
92.1346
43.967
24.4224
22.1897
29.9751
54.8988
29.4144
31.1369
57.7257
100.994
64.1562
44.0738
40.0969
38.6304
138.991
44.0667
6.95526
9.62985
30.0836
115.873
117.731
48.08
17.032
24.3812
50.1165
30.0236
33.0613
38.3743
49.5096
52.4262
43.6689
60.2496
117.647
144.191
7.2051
5.05837
7.81817
75.9225
123.477
126.03
119.139
10.6781
18.8419
46.4603
145.16
121.313
131.94
128.732
168.885
175.349
174.303
171.53
78.3304
2.06169
3.46212
8.60808
103.002
130.262
131.239
60.7197
4.6223
14.5709
44.2233
204.907
207.549
208.919
208.785
206.129
201.94
162.182
80.7829
0.176144
0.988501
2.01424
11.5985
30.036
86.4103
85.7872
0.868301
1.77213
7.76171
43.6046
61.8219
128.314
124.49
114.526
94.1122
29.0673
-0.887579
-0.291596
0.0117563
1.55989
3.00062
0.605875
1.70323
3.75617
2.22913
0.355593
0.713815
1.80931
44.3601
-1.07229
-1.49413
-1.43667
-1.22925
-0.933468
-0.560395
-0.375298
-0.25328
0.222548
1.48724
0.769953
0.0629657
0.234526
0.0304567
-0.000629077
0.206412
0.325653
0.355762
13.1229
-0.897226
-0.870137
-0.762069
-0.634808
-0.504404
-0.388798
-0.295007
-0.143268
0.195087
0.221976
0.0823031
0.0206839
-0.0351216
-0.0679158
-0.00117771
0.102446
0.104296
0.0728803
1.24946
-0.814714
-0.777932
-0.693943
-0.584865
-0.465219
-0.346464
-0.231955
-0.0829398
0.00378229
0.0278883
0.0379188
0.0241152
-0.015357
-0.0441478
-0.0271619
0.00580468
-0.00750966
-0.0182551
-0.133227
-0.685669
-0.656887
-0.589511
-0.498266
-0.394431
-0.285858
-0.18209
-0.0836946
0.014046
0.0227296
0.0359396
0.0208858
-0.0131596
-0.0393602
-0.0432148
-0.0314116
-0.0311978
-0.0204999
-0.0339527
-0.564657
-0.539324
-0.484605
-0.410252
-0.3253
-0.23568
-0.149554
-0.0744376
-0.00673619
0.0455082
0.0260285
0.0138531
-0.0112871
-0.0311593
-0.0338805
-0.0200688
-0.00203108
0.0375504
0.0843229
-0.466839
-0.445239
-0.401525
-0.341929
-0.273459
-0.201278
-0.13157
-0.0706301
-0.0247667
0.0365212
0.0256936
0.00806247
-0.00532344
-0.0133162
-0.00665809
0.0162332
0.048994
0.106797
0.171047
-0.389074
-0.371583
-0.337164
-0.289956
-0.235329
-0.177583
-0.121483
-0.0719128
-0.0334524
0.00271368
0.0167409
0.0154998
0.00453975
0.00835437
0.0263559
0.0597836
0.105531
0.173948
0.242629
-0.326588
-0.312734
-0.285824
-0.248748
-0.205554
-0.159641
-0.11462
-0.0741535
-0.0414523
-0.0183159
0.00475061
0.0158727
0.0217134
0.0298145
0.0569651
0.100122
0.158322
0.234652
0.304656
-0.276043
-0.26524
-0.244336
-0.215386
-0.181394
-0.144963
-0.108771
-0.075471
-0.0472334
-0.0249319
-0.00777539
0.0101712
0.0271074
0.0464776
0.0789503
0.129024
0.198353
0.280419
0.381645
-0.235208
-0.226962
-0.210838
-0.188296
-0.161552
-0.13256
-0.103265
-0.0755391
-0.0506981
-0.02929
-0.0107506
0.00677644
0.0264226
0.0518447
0.0876541
0.138596
0.210724
0.329095
1.28904
-0.202293
-0.196179
-0.183821
-0.166269
-0.145171
-0.12198
-0.098076
-0.0747541
-0.0529586
-0.0326626
-0.0139002
0.0046435
0.0248023
0.0492424
0.0809192
0.123965
0.181483
0.392696
10.7194
-0.175554
-0.171238
-0.161852
-0.148182
-0.131491
-0.112862
-0.0932659
-0.0735669
-0.0543945
-0.0359616
-0.0179839
-0.000178722
0.0183423
0.0387542
0.0624363
0.0911551
0.121204
0.34603
15.2233
-0.153366
-0.150617
-0.143634
-0.133038
-0.119833
-0.104848
-0.0887746
-0.0721762
-0.0554973
-0.0390388
-0.0228672
-0.00697233
0.00856864
0.0237883
0.0390057
0.0543294
0.0643592
0.112809
15.6472
-0.134471
-0.133114
-0.128141
-0.120057
-0.109667
-0.0976284
-0.0844647
-0.0705544
-0.0562375
-0.0418488
-0.0277282
-0.0143162
-0.00221036
0.00802728
0.0162202
0.0222763
0.0233616
0.00303625
16.088
-0.11807
-0.117922
-0.114669
-0.108695
-0.100629
-0.0909935
-0.0802187
-0.0685972
-0.0564194
-0.04405
-0.0320162
-0.0210535
-0.0120991
-0.00603805
-0.00329217
-0.00390509
-0.00898799
-0.0277598
16.4034
-0.103719
-0.104557
-0.102759
-0.0985796
-0.0924586
-0.0848017
-0.0759717
-0.0662366
-0.0558769
-0.0453069
-0.0351699
-0.0263393
-0.0199126
-0.0169673
-0.0180971
-0.0233879
-0.0331184
-0.0521402
16.5475
-0.0911446
-0.0927113
-0.0920988
-0.0894228
-0.0849367
-0.0789228
-0.0716769
-0.0634558
-0.0545598
-0.0454764
-0.036891
-0.0297221
-0.0250585
-0.0240552
-0.0274869
-0.0354982
-0.0484672
-0.0670769
16.7057
-0.0801055
-0.0821409
-0.0824348
-0.0809755
-0.0778476
-0.0732052
-0.0672672
-0.0602704
-0.0525379
-0.0445771
-0.0371013
-0.0310304
-0.0273526
-0.027137
-0.0313176
-0.0404515
-0.0549302
-0.0731534
16.0449
-0.0703461
-0.0726183
-0.0735469
-0.0730217
-0.0709914
-0.0674944
-0.0626461
-0.0566704
-0.0498515
-0.0427083
-0.0359303
-0.0303972
-0.0269158
-0.0264209
-0.0297713
-0.0378532
-0.0514916
-0.0652677
6.37214
-0.0616101
-0.0639354
-0.0652567
-0.0654015
-0.0642232
-0.0616632
-0.0577396
-0.0525032
-0.0464758
-0.0399447
-0.0336103
-0.0281281
-0.0241836
-0.0224618
-0.0236035
-0.0281203
-0.0355379
-0.0338719
0.366382
-0.0536748
-0.0559232
-0.0574413
-0.0580278
-0.0574809
-0.0556731
-0.0525752
-0.0477627
-0.0421665
-0.0364096
-0.0304493
-0.0246656
-0.0198114
-0.0162919
-0.0142834
-0.0136148
-0.0118278
0.00882959
0.0653516
-0.0463714
-0.0484621
-0.0500321
-0.0508811
-0.050787
-0.0495811
-0.0471713
-0.043106
-0.0377462
-0.03276
-0.0266682
-0.0204283
-0.0145807
-0.00931867
-0.00428899
0.00153769
0.0253067
0.0438529
0.119283
-0.0395882
-0.0414788
-0.0430029
-0.0439855
-0.0442143
-0.0435063
-0.0417223
-0.0386314
-0.0335274
-0.0289959
-0.0226288
-0.0106785
0.0148233
0.0103649
0.00490634
0.0133593
0.174608
0.202198
0.186449
-0.0332603
-0.034934
-0.0363508
-0.0373778
-0.0378386
-0.0375661
-0.0364061
-0.0341804
-0.0305423
-0.0193651
0.0211304
0.0689093
0.0758818
0.0773874
0.0149635
0.0198442
0.478167
0.507126
0.219314
-0.0273505
-0.0288036
-0.0300762
-0.0310819
-0.0316999
-0.0318131
-0.0313075
-0.0299637
-0.0270236
-0.0131946
0.0671362
0.0736545
0.0802767
0.0392084
0.0135639
0.414256
0.522986
0.513748
0.219025
-0.0218339
-0.0230648
-0.0241652
-0.0250914
-0.0257823
-0.0262011
-0.0263692
-0.0261549
-0.0240353
-0.0195862
0.0135722
0.0775948
0.0786769
0.0135055
0.0141839
0.131804
0.450802
0.186606
0.210656
-0.0167116
-0.0176965
-0.0185701
-0.0193277
-0.0199659
-0.0205747
-0.0215351
-0.0232169
-0.0226712
-0.017656
-0.0120667
0.00805499
0.00899084
0.0099126
0.0183495
0.0164279
0.0107874
0.0308006
0.494668
-0.011969
-0.0126135
-0.0131291
-0.0135384
-0.0139224
-0.0146229
-0.0170124
-0.023194
-0.0260206
-0.0186378
-0.0115377
-0.00468043
0.00341406
0.0140281
0.0264277
0.0250572
-0.00311639
-0.0130285
0.410967
-0.00715684
-0.00738178
-0.00737004
-0.0071977
-0.00708864
-0.00769449
-0.0118565
-0.0282538
-0.0265842
-0.0169186
-0.00986794
-0.00378491
0.00334355
0.0146367
0.0348912
0.0340317
-0.0254516
-0.108694
0.180744
)
;

boundaryField
{
    leftWall
    {
        type            fixedFluxPressure;
        gradient        uniform 0;
        value           nonuniform List<scalar> 
50
(
906.458
907.955
908.647
908.774
908.571
908.086
907.319
906.31
904.565
902.538
898.944
434.422
6.41991
0.775333
0.3862
0.330046
0.311291
0.295693
0.279528
0.261131
0.241222
0.221012
0.201135
0.181955
0.163723
0.146594
0.130697
0.116132
0.102921
0.0909901
0.0801999
0.0703927
0.0614376
0.0532539
0.0458086
0.0390948
0.033108
0.0278322
0.0232341
0.019261
0.0158462
0.0129181
0.0104072
0.0082484
0.00638244
0.00475961
0.00334368
0.00211338
0.00105951
0.000207698
)
;
    }
    rightWall
    {
        type            fixedFluxPressure;
        gradient        uniform 0;
        value           nonuniform List<scalar> 
50
(
468.503
469.584
471.04
465.699
465.766
453.722
267.468
136.982
135.946
127.893
122.315
142.765
140.305
58.3092
40.2318
54.8988
50.1165
46.4603
44.2233
43.6046
44.3601
13.1229
1.24946
-0.133227
-0.0339527
0.0843229
0.171047
0.242629
0.304656
0.381645
1.28904
10.7194
15.2233
15.6472
16.088
16.4034
16.5475
16.7057
16.0449
6.37214
0.366382
0.0653516
0.119283
0.186449
0.219314
0.219025
0.210656
0.494668
0.410967
0.180744
)
;
    }
    lowerWall
    {
        type            fixedFluxPressure;
        gradient        uniform 0;
        value           nonuniform List<scalar> 
62
(
906.458
900.107
892.431
884.048
875.969
868.609
862.395
857.736
854.998
854.45
856.237
860.37
866.697
874.928
884.611
894.868
903.767
910.983
913.321
907.233
892.615
875.545
864.8
864.8
862.278
857.378
850.266
841.104
829.694
815.997
795.793
610.488
600.826
636.002
635.083
1025.94
1042.94
1097.29
1113.29
1098.4
1057.56
996.357
920.043
1025.94
1006.09
928.933
807.101
705.972
646.171
616.776
603.788
603.608
617.437
639.764
644.339
613.684
568.522
526.625
497.08
478.925
465.622
468.503
)
;
    }
    atmosphere
    {
        type            totalPressure;
        rho             rho;
        psi             none;
        gamma           1;
        p0              uniform 0;
        value           nonuniform List<scalar> 
46
(
0
0
0
0
0
0
0
0
0
0
0
0
0
-7.00865e-06
-8.17059e-05
-0.000254492
-0.000527941
-0.000897734
-0.00135384
-0.0018782
-0.00244285
-0.00300936
-0.00353089
-0.00384929
-0.00404249
-0.00422607
-0.00439326
-0.00461925
-0.00458502
-0.00416363
-0.00340759
-0.00244668
-0.00145859
-0.000611335
-5.73194e-05
0
0
0
0
0
0
0
-0.000928567
-0.00685384
-0.0122775
0
)
;
    }
    defaultFaces
    {
        type            empty;
    }
}


// ************************************************************************* //
