/*--------------------------------*- C++ -*----------------------------------*\
| =========                 |                                                 |
| \\      /  F ield         | OpenFOAM: The Open Source CFD Toolbox           |
|  \\    /   O peration     | Version:  v2012                                 |
|   \\  /    A nd           | Website:  www.openfoam.com                      |
|    \\/     M anipulation  |                                                 |
\*---------------------------------------------------------------------------*/
FoamFile
{
    version     2.0;
    format      ascii;
    class       volScalarField;
    location    "0.6";
    object      alpha.water;
}
// * * * * * * * * * * * * * * * * * * * * * * * * * * * * * * * * * * * * * //

dimensions      [0 0 0 0 0 0 0];


internalField   nonuniform List<scalar> 
2268
(
1
1
1
1
1
1
1
1
1
1
1
1
1
1
1
1
1
1
1
0.995167
0.946181
0.946118
0.975846
1
1
1
1
1
1
1
1
1
1
1
1
1
1
1
1
1
1
1
0.999836
0.975233
0.946615
0.995236
1
1
1
1
1
1
1
1
1
1
1
1
1
1
1
1
1
1
1
1
0.999996
0.946865
0.995241
1
1
1
1
1
1
1
1
1
1
1
1
1
1
1
1
1
1
1
1
1
0.983854
0.997956
1
1
1
1
1
1
1
1
1
1
1
1
1
1
1
1
1
1
1
1
1
1
0.999597
1
1
1
1
1
1
1
1
1
1
1
1
1
1
1
1
1
1
1
1
1
1
0.999451
1
1
1
1
1
1
1
1
1
1
1
1
1
1
1
1
1
1
1
1
1
1
0.999428
1
0.99998
0.99997
0.999967
0.999974
0.999983
0.999991
0.999996
0.999999
1
1
1
1
1
1
1
1
1
1
1
1
1
0.999429
3.99004e-08
3.99004e-08
7.07188e-06
0.00316214
0.344454
0.677353
0.687405
0.679449
0.804312
0.913379
0.968001
0.988415
0.991845
0.993661
0.995464
0.9757
0.948157
0.931991
0.91788
3.99004e-08
9.53356e-07
0.000913157
0.0692296
0.132907
0.034853
0.00439093
6.20667e-05
0.00595383
0.129719
0.450166
0.767377
0.937777
0.996887
0.9992
0.999198
0.999198
0.999194
0.993527
2.77305e-07
3.78521e-07
0.00842669
0.0679579
0.0212825
2.14978e-06
2.41818e-06
4.89723e-06
1.49294e-05
3.41069e-05
0.000414097
0.00843567
0.260087
0.752869
0.996383
0.9992
0.999195
0.999192
0.999171
5.14687e-07
2.58624e-06
0.00895255
0.0406844
1.98316e-06
1.77527e-06
1.5944e-06
1.73764e-06
3.7265e-07
1.0976e-05
5.66451e-05
0.000384038
0.00269825
0.210573
0.85681
0.999195
0.999192
0.999177
0.999129
2.58547e-06
9.30386e-05
0.00230859
0.0266022
0.000705648
1.53743e-06
1.50546e-06
1.44773e-06
1.35077e-06
2.20268e-06
6.62289e-06
5.53534e-05
0.000446435
0.0310017
0.582339
0.999135
0.99915
0.996455
0.996012
0.165113
0.0978636
0.00546823
0.0101322
0.00239536
1.50546e-06
1.49318e-06
1.32605e-06
1.15391e-06
1.09922e-06
2.12611e-06
1.3509e-05
0.000105011
0.00108302
0.301926
0.999031
0.999108
0.993074
0.91485
0.909862
0.373673
0.00917581
0.00144687
0.0012121
1.71648e-06
1.36303e-06
1.15787e-06
1.03563e-06
9.22368e-07
1.12483e-06
3.36805e-06
3.10466e-05
0.000432057
0.208347
0.985293
0.999101
0.994069
0.884942
0.999983
0.44333
0.0116072
0.00072879
4.76288e-05
1.93529e-06
2.11259e-06
1.16921e-05
1.0569e-06
8.54279e-07
7.56856e-07
6.7059e-07
2.3428e-06
0.000167399
0.360443
0.963698
0.999142
0.997969
0.884884
0.613155
0.600605
0.606878
0.633138
0.67522
0.731109
0.793769
0.857222
0.915171
0.961289
0.990773
0.999846
1
1
1
1
1
1
1
1
1
1
0.999731
-2.17991e-10
-2.03807e-10
-1.05791e-10
0.00856451
0.0265889
0.0498192
0.0835338
0.133168
0.204624
0.306572
0.451797
0.627464
0.784364
0.905808
0.986354
1
1
1
1
1
1
1
1
-8.00448e-10
-1.85842e-09
-6.34653e-09
-1.29875e-08
-1.97692e-08
-2.7108e-08
-3.60374e-08
-4.78155e-08
-5.61104e-08
-4.76361e-08
3.24873e-05
0.0105463
0.0633313
0.163763
0.331037
0.588963
0.904544
1
0.999905
1
1
1
0.999999
-9.68321e-10
-3.04685e-09
-1.33871e-08
-2.87632e-08
-4.23558e-08
-5.76515e-08
-7.93962e-08
-1.14752e-07
-1.64482e-07
-2.13689e-07
-3.43096e-12
1.51774e-07
4.10019e-07
7.43541e-07
1.11906e-06
0.0119118
0.0623712
0.209077
0.493399
0.873299
0.969897
0.984117
0.999702
-5.72814e-10
-2.39137e-09
-1.11947e-08
-2.77678e-08
-4.24425e-08
-5.83384e-08
-7.82367e-08
-1.07662e-07
-1.5032e-07
-2.00831e-07
-2.23452e-07
-3.26946e-25
-4.11205e-09
3.88375e-09
7.32877e-09
4.24157e-08
8.61187e-10
5.5639e-10
0.00272865
0.0307648
0.126419
0.314255
0.608459
-1.21741e-10
-6.40629e-10
-5.87554e-09
-1.54524e-08
-2.56e-08
-3.62296e-08
-4.66793e-08
-5.63608e-08
-6.4797e-08
-7.23632e-08
-8.20097e-08
-6.10888e-08
-3.60131e-08
-2.11267e-11
1.62955e-24
-1.87069e-14
9.70373e-09
5.42943e-10
-7.91955e-28
1.43823e-13
0
-7.33363e-13
-5.14047e-13
-1.91103e-11
-5.78771e-11
-2.1436e-09
-6.02033e-09
-1.08055e-08
-1.61002e-08
-2.15568e-08
-2.69089e-08
-3.1956e-08
-3.65229e-08
-4.09133e-08
-4.3953e-08
-4.50904e-08
-4.25735e-08
-3.74965e-08
-1.32739e-08
-3.56944e-09
-6.70065e-10
-3.80085e-12
1.14406e-10
2.41508e-11
-1.67703e-11
-6.40357e-12
-5.21609e-12
-4.40638e-12
-5.71772e-10
-1.78867e-09
-3.41694e-09
-5.27407e-09
-7.2265e-09
-9.18263e-09
-1.1075e-08
-1.28505e-08
-1.44601e-08
-1.61066e-08
-1.76635e-08
-1.8886e-08
-1.95446e-08
-1.78911e-08
-1.59662e-08
-1.28433e-08
-7.69128e-09
-3.48489e-09
-1.23862e-09
-3.67832e-10
-3.20015e-11
-1.16134e-12
-8.69786e-13
-1.22002e-10
-4.16554e-10
-8.24409e-10
-1.28969e-09
-1.7738e-09
-2.2521e-09
-2.7016e-09
-3.10126e-09
-3.42816e-09
-3.69166e-09
-3.93061e-09
-4.17259e-09
-4.32315e-09
-4.13657e-09
-3.49154e-09
-2.54036e-09
-1.65255e-09
-8.28679e-10
-1.87767e-10
1.52672e-10
6.94682e-10
-1.71571e-13
-1.28865e-13
-2.03657e-11
-7.37216e-11
-1.47506e-10
-2.28995e-10
-3.09979e-10
-3.85118e-10
-4.45261e-10
-4.78986e-10
-4.66477e-10
-4.14621e-10
-3.50154e-10
-2.65894e-10
-1.33169e-10
-2.02019e-11
2.57256e-10
1.13569e-09
1.79124e-09
1.79649e-09
1.79558e-09
1.96874e-09
2.87631e-09
-1.49924e-14
-2.44139e-14
-2.38031e-12
-9.08357e-12
-1.8206e-11
-2.76196e-11
-3.60213e-11
-4.23095e-11
-4.29817e-11
-3.30018e-11
-1.80238e-12
4.10324e-11
1.15635e-10
1.75309e-10
2.22245e-10
3.16621e-10
5.47074e-10
8.3537e-10
9.39071e-10
9.08011e-10
7.68041e-10
7.37315e-10
8.4425e-10
-9.36874e-16
-6.91409e-15
-1.67612e-13
-6.91976e-13
-1.46242e-12
-2.16062e-12
-2.57446e-12
-2.42915e-12
-9.10512e-13
3.10658e-12
1.56293e-11
4.63858e-11
7.74713e-11
7.64352e-11
6.18392e-11
3.68823e-11
2.33916e-11
2.32586e-11
3.05619e-11
3.61496e-11
3.11602e-11
1.06397e-11
5.10284e-12
-2.04612e-16
-1.3309e-15
-1.02012e-14
-5.64029e-14
-1.3892e-13
-1.90383e-13
-1.68916e-13
-1.17337e-14
2.43593e-13
1.41419e-12
1.26829e-12
1.71529e-12
4.80515e-12
6.01556e-12
5.19825e-12
3.00322e-12
1.28847e-12
1.0457e-12
1.14839e-12
1.44357e-12
2.01608e-12
3.19118e-12
5.1008e-12
-6.54726e-17
-4.47073e-16
-3.12335e-15
-1.42771e-14
-3.15814e-14
-3.70767e-14
-2.45028e-14
7.13954e-15
1.07617e-14
4.65068e-14
1.08115e-13
1.60473e-13
1.73336e-13
1.86138e-13
1.76577e-13
1.93886e-13
3.04418e-13
5.14376e-13
8.78087e-13
1.02673e-12
9.97302e-13
9.45191e-13
9.38708e-13
-1.73995e-17
-1.16552e-16
-7.37567e-16
-2.89518e-15
-5.68772e-15
-5.53546e-15
-2.58566e-15
1.58196e-16
1.58019e-15
7.98684e-15
1.42881e-14
1.72202e-14
1.83678e-14
1.63481e-14
1.14686e-14
7.89229e-15
8.14678e-15
9.21637e-15
1.08502e-14
1.18064e-14
1.32308e-14
1.78037e-14
4.09904e-14
-3.62771e-18
-2.26422e-17
-1.29454e-16
-4.43889e-16
-7.62829e-16
-5.95665e-16
-1.93918e-16
6.42161e-17
1.74364e-16
6.46646e-16
1.17073e-15
1.3851e-15
1.31763e-15
8.99961e-16
3.88631e-16
1.72681e-16
1.78399e-16
2.06581e-16
2.58302e-16
4.37802e-16
1.47533e-15
6.53853e-15
3.68502e-14
-5.55051e-19
-3.07482e-18
-1.56506e-17
-4.67062e-17
-6.86375e-17
-4.09883e-17
-9.1826e-18
2.15405e-18
1.33779e-17
4.09946e-17
6.17871e-17
6.84527e-17
5.8924e-17
3.37905e-17
1.1966e-17
4.89223e-18
5.21954e-18
7.21622e-18
2.1814e-17
1.50975e-16
1.21068e-15
8.17936e-15
8.36077e-14
-5.77273e-20
-2.70123e-19
-1.17166e-18
-2.953e-18
-3.65294e-18
-1.64177e-18
2.46368e-20
1.83146e-19
6.62836e-19
1.54842e-18
2.28028e-18
2.53035e-18
2.25833e-18
1.42846e-18
5.73063e-19
2.11848e-19
2.79847e-19
1.16646e-18
1.1314e-17
1.17252e-16
1.19517e-15
1.31752e-14
1.65606e-13
-4.41324e-21
-1.90609e-20
-7.25704e-20
-1.72666e-19
-2.42677e-19
-1.51541e-19
-9.28381e-21
7.46229e-21
2.09346e-20
3.69279e-20
6.57755e-20
7.99166e-20
7.99573e-20
5.64135e-20
2.17497e-20
1.08231e-20
4.7979e-20
5.81621e-19
7.09825e-18
7.49525e-17
1.06898e-15
1.86612e-14
2.5889e-13
-5.03335e-22
-2.70441e-21
-1.18721e-20
-3.28005e-20
-5.38806e-20
-3.31928e-20
-1.72642e-21
5.07159e-22
5.90886e-22
7.39047e-22
1.56682e-21
2.06553e-21
2.0071e-21
1.322e-21
4.69231e-22
1.45392e-21
2.04028e-20
2.87878e-19
3.55253e-18
3.93062e-17
8.32482e-16
2.23338e-14
3.25157e-13
-6.35768e-23
-3.42453e-22
-1.58276e-21
-4.63573e-21
-7.96204e-21
-3.77296e-21
2.06656e-22
5.19021e-23
3.53611e-23
3.20354e-23
3.72654e-23
3.50543e-23
2.75937e-23
1.75887e-23
2.67574e-23
4.57764e-22
8.00256e-21
1.17661e-19
1.54262e-18
1.7394e-17
5.39072e-16
2.32366e-14
3.48863e-13
-4.06136e-24
-2.18821e-23
-1.06033e-22
-3.24825e-22
-5.29946e-22
1.75663e-22
9.99569e-23
3.2903e-24
2.10848e-24
1.60152e-24
1.04598e-24
4.45379e-25
9.86728e-26
3.13494e-25
7.0777e-24
1.51018e-22
2.68519e-21
4.40025e-20
5.95123e-19
6.7152e-18
2.9314e-16
1.6557e-14
2.87067e-13
-4.57095e-27
-8.59518e-27
-4.34736e-27
5.35469e-26
1.29202e-23
8.50593e-23
3.67333e-24
5.88982e-26
3.44837e-26
3.80113e-26
3.54058e-26
1.83725e-26
6.37327e-27
8.40576e-26
2.00473e-24
4.18097e-23
8.48506e-22
1.50579e-20
2.06534e-19
2.36874e-18
1.37279e-16
1.02161e-14
2.07059e-13
-3.80951e-30
-5.50805e-30
-3.72682e-30
-6.37276e-31
8.17311e-32
1.71456e-30
4.36672e-30
4.31408e-29
9.56371e-29
6.89406e-29
3.41715e-29
3.36448e-29
5.90372e-28
1.82521e-26
4.61636e-25
1.11483e-23
2.49279e-22
4.74702e-21
6.4919e-20
7.50423e-19
6.04033e-17
6.192e-15
1.47061e-13
-2.98529e-44
-2.41564e-42
-3.25199e-41
-1.05037e-52
1.02713e-39
5.38732e-35
6.92541e-33
7.63247e-32
2.78876e-31
5.33632e-31
8.22308e-31
4.16467e-30
1.34665e-28
3.81079e-27
1.06164e-25
2.77295e-24
6.78753e-23
1.35768e-21
1.8651e-20
2.18462e-19
2.75241e-17
3.80883e-15
9.54267e-14
2.25669e-48
1.71806e-69
-7.35933e-60
1.6926e-46
2.94e-43
1.07799e-38
3.50904e-35
1.1887e-33
5.79438e-33
1.24209e-32
2.62493e-32
6.24771e-31
2.24451e-29
7.33203e-28
2.24199e-26
6.41344e-25
1.67217e-23
3.42335e-22
4.77988e-21
6.02008e-20
1.35534e-17
2.37017e-15
5.94992e-14
9.03798e-51
1.39568e-50
1.37489e-51
-1.767e-47
9.86061e-46
1.02578e-41
1.32019e-37
6.11044e-36
3.40225e-35
1.07796e-34
2.12754e-33
1.00287e-31
3.68964e-30
1.31381e-28
4.39515e-27
1.34686e-25
3.61512e-24
7.46751e-23
1.06349e-21
1.65502e-20
7.07922e-18
1.35602e-15
3.5572e-14
5.09176e-52
1.60393e-50
3.67357e-53
1.4521e-51
6.12351e-47
7.29661e-43
3.57667e-41
1.70684e-39
9.53355e-38
5.51196e-36
3.16156e-34
1.31863e-32
5.51398e-31
2.16099e-29
7.75073e-28
2.47861e-26
6.66589e-25
1.38274e-23
1.99073e-22
5.36753e-21
3.76557e-18
7.25296e-16
1.96338e-14
1.33854e-53
8.89104e-53
1.17285e-53
6.91637e-53
6.09951e-49
2.82926e-44
3.57648e-42
2.03324e-40
1.26572e-38
7.30105e-37
3.38717e-35
1.61518e-33
7.4778e-32
3.16969e-30
1.18165e-28
3.85896e-27
1.02014e-25
1.95355e-24
2.90171e-23
2.30332e-21
1.97511e-18
3.63713e-16
9.55971e-15
4.08376e-55
4.91769e-56
5.82393e-56
-4.51222e-53
3.56168e-48
1.66771e-45
1.55973e-43
1.44281e-41
9.9759e-40
5.79798e-38
3.32791e-36
1.78121e-34
8.83572e-33
3.95992e-31
1.4996e-29
4.89507e-28
1.09087e-26
1.40396e-25
3.37651e-24
9.45069e-22
9.80931e-19
1.65962e-16
3.90293e-15
1.07575e-56
1.41349e-58
5.30787e-58
2.72652e-55
1.6333e-49
9.53916e-47
1.07285e-44
8.61442e-43
6.5497e-41
4.74068e-39
3.00137e-37
1.65821e-35
8.72868e-34
4.15804e-32
1.61735e-30
3.60059e-29
2.03092e-28
2.57021e-27
4.46932e-25
3.01745e-22
4.30555e-19
6.43098e-17
1.27401e-15
1.99666e-58
0
1.18879e-59
9.55395e-57
5.96089e-51
4.00024e-48
4.76705e-46
4.63915e-44
4.00794e-42
3.07797e-40
2.15949e-38
1.26675e-36
7.63453e-35
4.92528e-33
6.9633e-32
9.75702e-32
5.11763e-30
8.60424e-28
1.33945e-25
6.59075e-23
1.54726e-19
1.92847e-17
3.08887e-16
2.51077e-60
-2.14477e-59
0
5.60788e-59
5.79671e-53
1.36014e-49
1.82675e-47
2.03654e-45
1.95052e-43
1.58929e-41
1.20855e-39
8.69418e-38
7.04308e-36
1.10233e-34
1.39647e-34
6.02506e-33
1.1453e-30
1.99401e-28
3.1298e-26
8.79737e-24
3.65152e-20
3.99081e-18
5.82408e-17
-1.51265e-60
-1.24531e-58
-1.8973e-58
-6.9908e-75
3.41066e-54
3.66922e-51
5.57395e-49
7.02245e-47
7.19188e-45
6.03969e-43
5.68196e-41
7.25443e-39
1.36998e-37
1.51042e-37
3.17962e-36
6.92719e-34
1.4119e-31
2.5803e-29
4.19974e-27
9.39567e-25
4.84019e-21
5.67653e-19
9.39273e-18
-1.15876e-60
-1.04618e-58
-1.85323e-57
-8.60157e-75
8.26626e-56
7.34106e-53
1.1647e-50
1.55548e-48
1.84638e-46
1.77211e-44
1.8029e-42
1.85645e-40
3.05515e-39
3.74314e-39
1.78899e-37
4.34931e-35
9.59494e-33
1.88816e-30
3.29068e-28
6.75249e-26
3.53277e-22
5.82452e-20
1.29938e-18
-5.04827e-61
-3.87961e-59
-9.54417e-58
-8.99928e-57
3.53764e-60
7.89065e-55
1.5884e-52
2.34886e-50
2.94832e-48
3.61765e-46
3.97788e-44
3.35087e-42
5.31983e-41
7.27852e-41
5.79097e-39
1.58732e-36
3.90401e-34
8.53484e-32
1.64665e-29
3.25367e-27
1.66433e-23
4.48519e-21
1.31222e-19
-1.17151e-61
-6.22391e-60
-1.42139e-58
-1.46097e-57
1.7981e-62
4.42647e-57
9.12365e-55
1.55309e-52
2.89024e-50
4.06239e-48
7.07449e-46
3.28626e-44
5.10657e-44
3.97366e-43
1.21929e-40
3.89944e-38
1.10685e-35
2.78671e-33
6.18185e-31
1.85528e-28
1.24894e-24
2.31514e-22
8.19748e-21
-4.74756e-65
-5.65637e-64
-3.52958e-63
-5.16774e-82
9.85016e-66
3.55768e-60
1.19519e-57
3.00289e-55
5.78365e-53
2.58451e-50
1.05414e-48
3.27646e-49
2.39059e-47
1.16325e-44
5.07298e-42
1.95967e-39
6.70952e-37
2.02724e-34
9.79417e-32
1.35769e-27
1.97942e-25
8.74578e-24
2.77598e-22
-1.1806e-65
-9.55579e-65
-5.07059e-64
-1.23273e-64
-3.66083e-85
1.93718e-64
6.66622e-61
5.85737e-59
2.64748e-62
1.68466e-59
1.91701e-56
1.93261e-53
1.71963e-50
1.35246e-47
9.42105e-45
5.82199e-42
3.19426e-39
1.55056e-36
8.61907e-33
2.04927e-28
1.91908e-26
2.34409e-25
2.01034e-24
-4.59998e-68
-3.32668e-67
-2.776e-66
-1.74457e-65
-6.25288e-90
6.37481e-78
2.09847e-74
1.71016e-71
3.60337e-68
7.81392e-65
1.50938e-61
2.56823e-58
3.84915e-55
5.09514e-52
5.97532e-49
6.22409e-46
5.7667e-43
4.74444e-40
5.47761e-37
7.42339e-32
6.21242e-29
1.47053e-27
4.4017e-27
-2.07095e-86
9.46406e-86
-4.85935e-89
0
-4.41305e-85
-4.76165e-85
-5.39937e-87
-1.7332e-83
-3.48259e-80
-8.52141e-77
-2.16852e-73
-5.22977e-70
-1.13384e-66
-2.16305e-63
-3.59856e-60
-5.19263e-57
-6.42777e-54
-6.60311e-51
2.82123e-42
6.75405e-36
1.18177e-31
7.39698e-30
2.84303e-29
-8.29433e-87
-1.04412e-86
-5.06705e-86
0
-1.2486e-102
-8.78212e-105
-4.97273e-102
1.96023e-99
-1.51035e-97
-6.46148e-94
7.99444e-87
-1.50178e-84
-3.64838e-82
5.20906e-76
-5.00814e-74
-1.41251e-70
3.20663e-65
-2.24325e-63
-6.91301e-60
2.35867e-48
8.8336e-42
2.01219e-38
3.31659e-37
0.999574
0.999574
0.999574
0.999789
0.999999
0.999997
0.999783
0.999932
0.999999
0.999993
0.999964
0.999968
0.999984
0.999976
0.999948
0.999952
0.816974
0.861888
0.879971
0.901424
-1.46922e-12
0.0170402
0.0513026
0.097495
-1.39883e-10
-4.65729e-10
-1.12429e-09
-1.62471e-09
-4.004e-10
-1.51366e-09
-4.2317e-09
-7.17928e-09
1.03687e-09
1.2236e-09
1.52809e-09
1.91744e-09
3.42516e-09
4.41705e-09
8.76146e-09
8.87223e-09
1.00998e-09
1.29785e-09
3.96035e-09
8.70559e-09
5.18215e-12
5.2593e-12
5.29519e-12
5.34994e-12
6.57958e-12
7.42749e-12
8.23899e-12
9.13288e-12
9.59372e-13
9.87302e-13
1.02967e-12
1.10173e-12
7.49523e-14
1.13425e-13
1.75039e-13
2.64459e-13
8.78505e-14
1.55192e-13
2.73934e-13
4.52872e-13
2.14461e-13
3.89757e-13
6.90173e-13
1.14104e-12
4.3489e-13
8.04901e-13
1.42904e-12
2.47172e-12
6.87585e-13
1.27815e-12
2.27505e-12
4.03746e-12
8.69152e-13
1.61046e-12
2.92198e-12
5.05148e-12
9.37548e-13
1.73452e-12
3.22542e-12
5.26115e-12
7.94723e-13
1.49684e-12
3.07147e-12
5.14363e-12
6.03019e-13
1.24366e-12
2.98465e-12
5.81724e-12
4.73294e-13
1.13281e-12
3.30458e-12
8.06733e-12
3.5756e-13
1.04198e-12
3.61059e-12
9.80634e-12
2.58569e-13
8.93774e-13
2.91063e-12
7.5714e-12
1.75823e-13
6.20357e-13
1.56572e-12
2.92511e-12
1.02736e-13
3.13269e-13
6.35943e-13
1.02372e-12
4.793e-14
1.18052e-13
1.94453e-13
2.39879e-13
1.71739e-14
3.34342e-14
4.64161e-14
4.6639e-14
4.76521e-15
7.71188e-15
9.66693e-15
9.78329e-15
1.02114e-15
1.80419e-15
2.95661e-15
6.75395e-15
2.04681e-16
6.34544e-16
1.82331e-15
5.56846e-15
4.2192e-17
3.25203e-16
1.36129e-15
1.42229e-15
7.68819e-18
1.14602e-16
6.13559e-16
6.23544e-16
8.19365e-19
1.99838e-17
1.49454e-16
1.64223e-16
4.92155e-20
1.77846e-18
1.76506e-17
2.07097e-17
1.45606e-21
1.03493e-19
1.24163e-18
1.14064e-18
1.03676e-23
1.09981e-21
9.75035e-21
2.67592e-21
8.03682e-29
2.73429e-25
6.91163e-24
4.17108e-24
2.62429e-37
1.52102e-34
8.61334e-32
-5.30194e-27
1.07011e-45
1.03448e-50
1.05931e-47
-3.30436e-31
0.999983
0.556533
0.0157945
0.00358589
0.00173636
8.21582e-05
2.56941e-06
3.24032e-05
2.27069e-06
7.71954e-07
7.70679e-07
7.70557e-07
8.19758e-07
4.72933e-06
0.545054
0.98707
0.999181
0.999181
0.885035
0.999981
0.864756
0.0459457
0.00315628
0.00388965
0.00149902
0.000162224
7.35679e-06
2.14601e-06
9.53443e-07
7.71954e-07
8.16112e-07
8.00101e-07
1.39289e-05
0.720117
0.998939
0.999175
0.999183
0.899711
0.999979
0.999978
0.203406
0.00169013
0.000917851
0.000678707
0.000287388
4.04824e-05
5.63887e-06
1.36737e-06
8.6906e-07
8.45292e-07
4.41516e-08
0.144949
0.894026
0.99799
0.999105
0.999175
0.906526
0.999971
0.999978
0.901537
0.06448
0.000754266
0.000223131
7.01349e-05
1.95733e-05
5.11173e-06
1.94628e-06
1.32151e-06
1.06934e-06
3.73302e-06
0.54831
0.978286
0.990297
0.977603
0.999012
0.892438
0.965004
0.999954
0.999882
0.813437
0.184085
0.000372241
5.97466e-05
1.11034e-05
2.76903e-06
1.59027e-06
1.47378e-06
1.18311e-06
0.212856
0.86054
0.955674
0.813119
0.88374
0.995466
0.888571
0.320812
0.842816
0.999834
0.998662
0.916496
0.414241
0.000206075
1.13598e-05
1.91522e-06
1.47376e-06
1.47428e-06
0.107434
0.804227
0.86165
0.702446
0.695338
0.880215
0.992751
0.888051
-9.70999e-10
0.00503491
0.232521
0.736541
0.930919
0.930919
0.707746
0.307093
0.00144317
0.00218214
0.198493
0.818822
0.836957
0.612775
0.614846
0.704572
0.863116
0.987314
0.887362
-6.15303e-09
-2.62488e-09
-3.65285e-10
0.0503223
0.366793
0.717139
0.785354
0.785354
0.601648
0.630334
0.791021
0.808539
0.529737
0.529172
0.75834
0.508089
0.278459
0.65191
0.894623
1.13396e-09
-9.30521e-10
-9.80399e-11
-7.35724e-08
0.000168397
0.0664369
0.347022
0.566269
0.748018
0.809998
0.809998
0.707137
0.752901
0.762632
0.635146
0.143001
0.143001
0.157049
0.894623
8.71264e-09
3.20275e-09
-1.35242e-11
-7.61361e-10
1.12708e-06
4.70067e-05
0.00120816
0.0520162
0.237638
0.508656
0.672804
0.732955
0.751654
0.601663
0.193101
0.156543
0.161259
0.158487
0.337261
8.7438e-09
4.75492e-09
4.57917e-11
1.91397e-11
1.51492e-08
1.14926e-06
2.29948e-05
0.000239921
0.00166394
0.06151
0.372213
0.522802
0.220013
0.0589463
0.200354
0.30637
0.307575
0.200368
0.120251
2.46661e-11
1.09306e-10
1.926e-11
1.58163e-11
3.2888e-10
2.46809e-08
1.84521e-06
2.34146e-05
0.000240003
0.0175675
0.059417
0.0547253
0.000223142
0.000169784
0.0371216
0.203838
0.308779
0.308779
0.203868
1.1095e-11
1.5866e-11
1.66432e-11
1.06032e-11
7.7616e-12
5.02856e-10
6.50762e-08
1.57987e-06
0.00108015
0.00904073
0.000224034
0.000112705
1.93128e-05
1.21135e-05
8.75335e-06
4.46798e-05
0.0481178
0.290712
0.353719
1.47755e-12
2.87261e-12
7.0725e-12
1.05407e-11
9.56999e-12
2.06325e-13
4.4159e-09
1.60874e-05
0.00100682
0.000770725
2.30086e-05
9.94787e-06
3.37496e-06
4.0597e-06
6.65398e-06
9.71793e-06
4.41887e-05
0.0040661
0.353203
5.42769e-13
1.78824e-12
5.75634e-12
1.12387e-11
1.11155e-11
1.62473e-11
2.40934e-09
3.25266e-05
0.000372446
1.28542e-05
2.95826e-06
1.57137e-06
1.90123e-06
3.43071e-06
4.0597e-06
6.45547e-06
4.33253e-05
0.00585006
0.0936185
1.03828e-12
2.95392e-12
1.26628e-11
2.65581e-11
2.05494e-11
2.75878e-11
3.17466e-07
2.43065e-05
3.71056e-06
2.0681e-06
4.09128e-07
2.87498e-07
1.37685e-06
1.84093e-06
8.62429e-06
0.000194009
0.000673051
0.0180854
0.0415478
2.68642e-12
6.55142e-12
2.5269e-11
1.20732e-10
7.16716e-11
5.67118e-11
2.31023e-07
4.82024e-06
4.94339e-07
3.17367e-07
6.15291e-08
3.53987e-08
2.56646e-07
6.32114e-07
0.000212465
0.00254064
0.00170433
0.0550308
0.209478
5.37336e-12
2.43992e-11
4.47923e-11
2.63433e-10
4.56042e-10
5.44468e-10
6.14534e-08
3.52003e-08
7.76611e-08
4.60727e-08
1.11081e-08
7.92822e-09
2.4982e-08
1.8321e-07
0.000222149
0.00294866
0.0501618
0.172498
0.209486
8.35606e-12
6.18869e-11
8.30074e-11
2.75589e-10
8.46167e-10
4.81663e-10
7.60583e-10
3.53892e-09
1.00364e-08
7.35923e-09
3.1106e-09
4.76251e-09
3.07127e-08
1.26994e-06
0.000218571
2.91033e-05
0.178536
0.209752
0.209566
1.07355e-11
9.49589e-11
1.50377e-10
2.50567e-10
8.65299e-10
4.30233e-10
3.68092e-10
6.35152e-10
1.75358e-09
1.79181e-09
1.77992e-09
4.16799e-09
1.60519e-08
1.82137e-08
7.32916e-05
1.46183e-05
0.196881
0.209499
0.209486
1.95964e-11
9.55276e-11
3.66883e-10
2.66253e-10
7.00429e-10
3.46737e-10
3.4737e-10
3.71133e-10
6.32945e-10
9.00332e-10
1.57553e-09
2.59688e-09
2.66266e-09
2.19393e-06
6.93675e-08
1.23283e-07
0.0548718
0.209771
0.209418
5.16451e-11
1.92981e-10
6.61947e-10
2.99795e-10
6.05508e-10
3.4737e-10
3.46728e-10
3.60102e-10
4.45485e-10
7.55795e-10
1.38363e-09
9.14507e-10
6.56686e-09
2.62337e-06
4.4021e-08
6.89856e-08
0.0248286
0.130009
0.194708
8.42565e-11
2.22013e-10
6.84581e-10
3.33602e-10
8.483e-10
1.12277e-08
1.12225e-08
4.27054e-10
5.08444e-10
6.66272e-10
9.56656e-10
9.0332e-10
9.14507e-10
1.94792e-06
5.89474e-09
0.00572651
0.0760017
0.0703968
0.0702762
8.13291e-11
2.61169e-10
5.05815e-10
6.17053e-10
2.11822e-09
2.66665e-08
2.72519e-08
6.42658e-09
7.82994e-10
6.88435e-10
9.73651e-10
9.03358e-10
9.03358e-10
4.13002e-07
2.75529e-09
0.0167365
0.0992397
0.070921
0.0703548
3.40835e-11
2.38796e-10
1.9569e-10
1.6334e-09
3.3375e-09
2.72519e-08
2.72519e-08
2.66004e-08
4.17108e-09
6.94179e-10
1.54582e-09
1.05847e-09
9.12405e-10
9.18686e-10
1.97789e-09
0.00824054
0.101935
0.102627
0.0710927
2.02228e-11
1.31743e-10
7.76158e-11
3.73148e-09
4.95811e-09
1.58941e-08
2.72519e-08
2.72305e-08
1.05611e-08
7.8941e-10
1.78757e-09
1.11397e-09
9.18688e-10
9.18757e-10
2.36744e-09
3.05434e-09
0.0943137
0.102627
0.0727625
1.06486e-11
5.85544e-11
7.21172e-11
4.07133e-09
5.3158e-09
2.82001e-09
1.86817e-08
2.67454e-08
1.01851e-08
7.58742e-10
1.45561e-09
4.08523e-10
1.59981e-08
2.80245e-07
3.05435e-09
7.96771e-09
0.0521973
0.102627
0.0910373
4.8121e-12
2.88511e-11
1.48831e-10
2.58502e-09
5.10269e-09
7.48919e-10
1.53011e-09
5.99518e-09
4.73828e-09
6.74028e-10
4.55198e-10
3.87004e-10
9.03224e-07
7.98339e-07
7.82096e-09
0.00219851
0.0537027
0.0854311
0.102174
1.97232e-12
1.56281e-11
1.45319e-10
6.95573e-10
2.7933e-09
1.9725e-10
2.16895e-10
2.94059e-10
3.25767e-10
2.76021e-10
2.67098e-10
1.45153e-07
1.07998e-06
7.65906e-07
1.78642e-08
0.0473178
0.10169
0.0865353
0.103727
8.11655e-13
5.01691e-12
5.46227e-11
1.30137e-10
6.92598e-10
1.35542e-11
1.87355e-06
5.03335e-10
2.72993e-10
2.67294e-10
2.67294e-10
7.99193e-07
1.07998e-06
5.71064e-07
2.99562e-08
0.0680007
0.103065
0.101895
0.105491
5.74572e-13
2.63278e-12
1.15111e-11
5.21606e-11
2.42622e-10
1.23833e-11
8.24472e-06
1.29841e-05
1.50104e-05
1.06607e-05
5.01286e-06
1.08179e-06
8.75236e-07
2.26951e-07
4.55409e-08
0.00852711
0.105362
0.105491
0.105491
6.73981e-13
2.70281e-12
7.71521e-12
3.30659e-11
1.46513e-10
1.20171e-11
5.29655e-06
2.44017e-05
2.45827e-05
2.4233e-05
1.49943e-05
5.92302e-07
1.6109e-07
1.03314e-07
5.79027e-08
6.4028e-08
0.0896903
0.105305
0.105491
1.04506e-12
4.26805e-12
8.40144e-12
1.78652e-11
6.44596e-11
1.19188e-11
7.29038e-08
2.45861e-05
2.45839e-05
1.57802e-05
3.6167e-06
1.66484e-07
1.40741e-07
1.55286e-07
9.2746e-08
6.77141e-08
0.0735403
0.0772824
0.0800876
1.18982e-12
6.0202e-12
1.1661e-11
1.43091e-11
1.73034e-11
1.1924e-11
1.1924e-11
5.9561e-06
1.65018e-05
1.10312e-05
1.7652e-07
1.40022e-07
1.31168e-07
1.23215e-07
1.19005e-07
7.48129e-08
0.0441875
0.0453802
0.0462121
6.89904e-13
5.36861e-12
1.61358e-11
2.83812e-11
2.99583e-11
1.19197e-11
9.24044e-09
9.97099e-09
7.55173e-08
1.16037e-05
7.32629e-05
0.000161584
0.00015158
8.07617e-05
4.40261e-06
1.11436e-07
0.0153145
0.0640195
0.0461611
2.67177e-13
3.49726e-12
1.28766e-11
2.61614e-11
2.18565e-10
3.87871e-09
2.56467e-08
1.28207e-08
4.4928e-09
2.61107e-08
0.000193778
0.00021542
0.000217854
0.000219049
0.00011331
5.5241e-07
0.00169676
0.0641286
0.0494477
3.97452e-14
1.18352e-12
8.66907e-12
3.41796e-11
5.57782e-10
5.83209e-09
2.54445e-08
1.29844e-08
2.74624e-09
1.50563e-09
2.99413e-05
0.0001814
0.000219049
0.000219049
0.00019195
8.96713e-06
2.24411e-07
0.0469499
0.0466034
4.63582e-15
3.64208e-13
4.40713e-12
1.94074e-11
1.7434e-10
2.10298e-09
5.35208e-09
8.39828e-09
2.63693e-09
3.0943e-10
1.21605e-09
1.03507e-05
8.61619e-05
0.000133359
7.54128e-05
2.47989e-06
1.65236e-08
0.0195714
0.046296
3.75968e-17
1.26813e-14
4.7449e-13
4.57171e-12
2.16165e-11
1.1216e-10
4.26731e-10
5.29636e-09
2.66274e-09
2.68186e-10
2.14688e-10
7.63481e-09
2.89417e-08
4.22196e-07
9.59299e-08
2.24496e-07
9.26701e-10
0.00357056
0.0463236
4.97468e-21
4.30837e-17
8.16622e-15
2.91602e-13
6.60296e-12
8.07933e-11
3.30451e-10
1.21323e-09
1.12758e-09
2.72553e-10
8.22779e-12
1.36259e-10
3.33998e-10
8.14428e-10
2.2205e-09
9.26701e-10
1.7062e-10
0.0192437
0.0463182
-1.60412e-27
2.53199e-21
7.77624e-17
2.27108e-14
6.31547e-13
9.41534e-12
3.69681e-11
2.19046e-11
7.17933e-11
3.9965e-11
2.2015e-12
3.65816e-12
5.84133e-12
6.7312e-10
3.18751e-09
2.24203e-09
3.22003e-11
0.0103514
0.0463205
-1.62527e-31
7.42603e-29
1.76392e-22
6.83072e-18
1.82284e-15
4.33089e-14
1.99039e-13
4.68235e-13
8.13949e-13
1.74e-12
2.00903e-12
2.20208e-12
3.65816e-12
1.80545e-09
3.0023e-09
1.11053e-09
0
0
0.0171562
)
;

boundaryField
{
    leftWall
    {
        type            zeroGradient;
    }
    rightWall
    {
        type            zeroGradient;
    }
    lowerWall
    {
        type            zeroGradient;
    }
    atmosphere
    {
        type            inletOutlet;
        inletValue      uniform 0;
        value           nonuniform List<scalar> 
46
(
0
0
0
0
0
0
0
0
0
0
0
0
0
0
0
0
0
0
0
0
0
0
0
0
0
0
0
0
0
0
6.83072e-18
1.82284e-15
4.33089e-14
1.99039e-13
4.68235e-13
8.13949e-13
1.74e-12
2.00903e-12
2.20208e-12
3.65816e-12
0
0
0
0
0
0.0171562
)
;
    }
    defaultFaces
    {
        type            empty;
    }
}


// ************************************************************************* //
