/*--------------------------------*- C++ -*----------------------------------*\
| =========                 |                                                 |
| \\      /  F ield         | OpenFOAM: The Open Source CFD Toolbox           |
|  \\    /   O peration     | Version:  v2012                                 |
|   \\  /    A nd           | Website:  www.openfoam.com                      |
|    \\/     M anipulation  |                                                 |
\*---------------------------------------------------------------------------*/
FoamFile
{
    version     2.0;
    format      ascii;
    class       surfaceScalarField;
    location    "0.6";
    object      alphaPhi0.water;
}
// * * * * * * * * * * * * * * * * * * * * * * * * * * * * * * * * * * * * * //

dimensions      [0 3 -1 0 0 0 0];
oriented        oriented;


internalField   nonuniform List<scalar> 
4432
(
-4.91039e-06
4.91039e-06
-7.16032e-06
2.24993e-06
-6.34694e-06
-8.13375e-07
-4.39985e-06
-1.9471e-06
-2.28108e-06
-2.11877e-06
-3.56218e-07
-1.92486e-06
1.27946e-06
-1.63568e-06
2.60878e-06
-1.32932e-06
3.67796e-06
-1.06918e-06
4.54344e-06
-8.65474e-07
5.25102e-06
-7.07584e-07
5.82193e-06
-5.70905e-07
6.25846e-06
-4.36536e-07
6.54147e-06
-2.83e-07
6.58631e-06
-4.48498e-08
6.20861e-06
3.77705e-07
5.15506e-06
1.05356e-06
3.12602e-06
2.02904e-06
-1.11567e-08
3.13718e-06
-4.31415e-06
4.51308e-06
-8.54245e-06
4.18825e-06
-9.11491e-06
5.32454e-07
-9.43039e-06
-3.87887e-06
8.78925e-06
-4.30832e-06
2.67938e-06
-3.25558e-06
-1.86611e-06
-1.62147e-06
-3.58121e-06
1.10483e-07
-3.85072e-06
1.70235e-06
-3.51672e-06
3.04894e-06
-2.98228e-06
4.14745e-06
-2.42782e-06
5.02349e-06
-1.94522e-06
5.71939e-06
-1.56137e-06
6.27103e-06
-1.25922e-06
6.69251e-06
-9.92377e-07
6.98309e-06
-7.27126e-07
7.13426e-06
-4.34158e-07
7.12444e-06
-3.50409e-08
6.89189e-06
6.10264e-07
6.2767e-06
1.66875e-06
5.03533e-06
3.27041e-06
2.88431e-06
5.2882e-06
6.03544e-08
7.35562e-06
-2.97713e-06
7.56551e-06
-4.447e-06
1.94189e-06
-1.3918e-05
-2.16788e-06
1.09571e-05
-1.88e-06
2.3915e-06
-8.63853e-07
-2.88226e-06
4.98656e-07
-4.94372e-06
1.9065e-06
-5.25856e-06
3.18054e-06
-4.79077e-06
4.25131e-06
-4.05304e-06
5.11446e-06
-3.29097e-06
5.79135e-06
-2.62212e-06
6.31652e-06
-2.08653e-06
6.71869e-06
-1.6614e-06
7.00523e-06
-1.2789e-06
7.17221e-06
-8.94115e-07
7.21778e-06
-4.79728e-07
7.14221e-06
4.05332e-08
6.92453e-06
8.27946e-07
6.50081e-06
2.09247e-06
5.76291e-06
4.00831e-06
4.59426e-06
6.45685e-06
3.07428e-06
8.8756e-06
1.23092e-06
9.40897e-06
6.92661e-08
3.04687e-06
-1.38888e-05
-4.58379e-07
1.14155e-05
3.11818e-07
1.62131e-06
1.29867e-06
-3.86911e-06
2.43593e-06
-6.08098e-06
3.52718e-06
-6.34981e-06
4.48052e-06
-5.74411e-06
5.26651e-06
-4.83903e-06
5.8862e-06
-3.91067e-06
6.35664e-06
-3.09255e-06
6.70637e-06
-2.43626e-06
6.95887e-06
-1.91391e-06
7.11445e-06
-1.43447e-06
7.16514e-06
-9.44812e-07
7.11701e-06
-4.31592e-07
6.9882e-06
1.6934e-07
6.7897e-06
1.02645e-06
6.5118e-06
2.37038e-06
6.12123e-06
4.39888e-06
5.60175e-06
6.97633e-06
5.00556e-06
9.47179e-06
4.18312e-06
1.02314e-05
2.64633e-06
4.62052e-06
-1.12416e-05
1.30942e-06
1.01061e-05
2.34295e-06
5.87778e-07
3.37146e-06
-4.89762e-06
4.27158e-06
-6.98111e-06
5.02987e-06
-7.10811e-06
5.65282e-06
-6.36706e-06
6.14855e-06
-5.33475e-06
6.52113e-06
-4.28325e-06
6.78121e-06
-3.35263e-06
6.95224e-06
-2.60728e-06
7.05446e-06
-2.01614e-06
7.08106e-06
-1.46107e-06
7.01885e-06
-8.826e-07
6.88189e-06
-2.94629e-07
6.70608e-06
3.45146e-07
6.52948e-06
1.20305e-06
6.37707e-06
2.52279e-06
6.25213e-06
4.52382e-06
6.18701e-06
7.04145e-06
6.20263e-06
9.45618e-06
6.01751e-06
1.04165e-05
4.57733e-06
6.0607e-06
-6.67104e-06
2.77308e-06
7.33302e-06
4.33662e-06
-9.7576e-07
5.36729e-06
-5.9283e-06
5.98912e-06
-7.60294e-06
6.38755e-06
-7.50654e-06
6.67548e-06
-6.65499e-06
6.8863e-06
-5.54557e-06
7.01807e-06
-4.41502e-06
7.07125e-06
-3.40582e-06
7.06493e-06
-2.60096e-06
7.01908e-06
-1.97029e-06
6.92004e-06
-1.36203e-06
6.74781e-06
-7.10373e-07
6.52461e-06
-7.14279e-08
6.30408e-06
5.65679e-07
6.14804e-06
1.35908e-06
6.1054e-06
2.56543e-06
6.19188e-06
4.43734e-06
6.46225e-06
6.77108e-06
6.92431e-06
8.99412e-06
7.22959e-06
1.01112e-05
5.94762e-06
7.34268e-06
-7.29172e-07
3.92646e-06
3.40656e-06
6.23122e-06
-3.28052e-06
7.23792e-06
-6.935e-06
7.51352e-06
-7.87856e-06
7.53356e-06
-7.52659e-06
7.5024e-06
-6.62384e-06
7.45227e-06
-5.49544e-06
7.36317e-06
-4.32591e-06
7.22212e-06
-3.26477e-06
7.04558e-06
-2.42442e-06
6.85804e-06
-1.78274e-06
6.63981e-06
-1.1438e-06
6.36146e-06
-4.32019e-07
6.05447e-06
2.35556e-07
5.78975e-06
8.30401e-07
5.65105e-06
1.49778e-06
5.70411e-06
2.51237e-06
5.96113e-06
4.18033e-06
6.48993e-06
6.24228e-06
7.30969e-06
8.17437e-06
8.07475e-06
9.34618e-06
7.11151e-06
8.30593e-06
6.37828e-06
5.10658e-06
-1.6995e-06
7.98892e-06
-6.15705e-06
8.77909e-06
-7.72595e-06
8.65193e-06
-7.75226e-06
8.33919e-06
-7.21461e-06
8.05797e-06
-6.34317e-06
7.80636e-06
-5.24419e-06
7.53974e-06
-4.05949e-06
7.23157e-06
-2.9567e-06
6.8997e-06
-2.09258e-06
6.5826e-06
-1.46565e-06
6.2574e-06
-8.1859e-07
5.87774e-06
-5.23572e-08
5.49059e-06
6.22709e-07
5.18241e-06
1.13858e-06
5.0575e-06
1.62269e-06
5.19327e-06
2.3766e-06
5.58548e-06
3.78812e-06
6.31566e-06
5.5121e-06
7.44202e-06
7.048e-06
8.69635e-06
8.09186e-06
8.51537e-06
8.48691e-06
1.48896e-05
-1.63521e-11
4.62605e-14
5.17112e-09
-5.204e-09
-1.52293e-07
1.54053e-07
-5.30997e-06
3.52533e-06
-0.000110271
1.22532e-05
-0.000151944
1.00149e-05
-0.000156966
9.21035e-07
-0.000161088
-2.01588e-06
-0.000181311
-3.0949e-06
-0.000191692
-4.30236e-06
-0.000191755
-6.95411e-06
-0.0001853
-8.67512e-06
-0.000175299
-1.06564e-05
-0.000160566
-1.53249e-05
-0.00013289
-2.79732e-05
-8.8301e-05
-4.27693e-05
-4.37539e-05
-4.46409e-05
-1.03632e-05
-3.4365e-05
-1.12178e-05
-2.103e-11
4.77034e-12
-4.91077e-09
-1.24666e-09
-1.5956e-06
1.18974e-06
-2.85817e-05
1.28971e-05
-2.03959e-05
-1.18616e-06
-3.39722e-06
4.72581e-07
-1.04334e-06
-1.79273e-08
-3.01694e-06
-4.94834e-08
-8.89412e-06
-1.60002e-07
-4.47305e-05
-7.91063e-07
-0.000103268
-2.37781e-06
-0.000143269
-5.19306e-06
-0.000152789
-1.4957e-05
-0.000140882
-2.9431e-05
-0.000117985
-5.087e-05
-8.48007e-05
-7.59511e-05
-5.11163e-05
-7.83232e-05
-2.1147e-05
-6.43324e-05
-3.25136e-05
-1.57552e-10
3.7249e-12
-1.3539e-08
1.18481e-08
-4.1043e-06
2.39834e-06
-9.56018e-06
1.80371e-06
-4.91461e-07
-6.85928e-08
-1.06035e-08
-4.59464e-11
-2.77254e-08
-7.80617e-10
-7.50565e-08
-2.50186e-09
-2.29181e-07
-7.41104e-09
-1.01215e-06
-3.21064e-08
-3.29854e-06
-1.40329e-07
-1.14288e-05
-5.56526e-07
-6.43871e-05
-4.8132e-06
-0.000111473
-2.48576e-05
-9.94104e-05
-7.05255e-05
-7.32354e-05
-0.000102125
-4.75117e-05
-0.000104043
-2.27725e-05
-8.90665e-05
-5.52767e-05
5.55661e-11
-3.53373e-10
1.74353e-08
4.73131e-09
-2.45103e-06
2.24021e-06
-2.3636e-06
3.93527e-07
-1.0197e-09
9.94825e-08
-6.32903e-10
-2.09333e-13
-1.17695e-09
-1.71368e-10
-3.28751e-09
-3.62457e-10
-1.0245e-08
-9.58811e-10
-3.9229e-08
-4.19796e-09
-1.64406e-07
-1.87878e-08
-7.10357e-07
-8.21301e-08
-5.2811e-06
-5.82832e-07
-5.61585e-05
-9.20333e-06
-7.93778e-05
-7.83144e-05
-5.89091e-05
-0.000122595
-3.96903e-05
-0.000123257
-2.01199e-05
-0.00010863
-7.5382e-05
7.7822e-08
-6.78381e-08
2.52212e-08
2.14152e-08
1.63222e-07
1.84522e-06
-6.93701e-07
4.94568e-07
-3.70151e-10
3.32375e-07
-3.4766e-10
7.34347e-11
-3.9454e-10
-9.36879e-11
-5.63583e-10
-1.67483e-10
-1.24284e-09
-2.97501e-10
-4.56467e-09
-8.61646e-10
-1.96645e-08
-4.01576e-09
-8.42628e-08
-2.28162e-08
-5.55189e-07
-1.57795e-07
-1.45783e-05
-1.59329e-06
-5.9545e-05
-5.88661e-05
-4.40989e-05
-0.000138029
-3.04077e-05
-0.000136925
-1.601e-05
-0.0001224
-9.01012e-05
2.78936e-06
-2.28896e-05
2.57165e-06
-5.98327e-06
-1.57178e-07
4.90464e-06
-1.93129e-07
2.34869e-06
-1.6575e-10
7.14405e-07
-2.20747e-10
1.60302e-10
-2.64431e-10
-3.11315e-11
-2.58626e-10
-1.67669e-10
-3.76187e-10
-1.85112e-10
-9.63518e-10
-3.15614e-10
-3.88799e-09
-1.20543e-09
-1.9711e-08
-7.77579e-09
-1.21973e-07
-6.05763e-08
-1.21887e-06
-5.59881e-07
-4.03332e-05
-3.53327e-05
-3.03136e-05
-0.000148015
-2.12198e-05
-0.000145991
-1.11156e-05
-0.000131665
-9.15888e-05
1.22903e-05
-5.59983e-05
2.41676e-06
-1.8278e-05
9.80943e-08
6.00075e-06
3.74137e-08
2.3143e-06
2.53797e-10
4.00676e-07
-2.08279e-10
5.99954e-10
-2.19209e-10
5.16057e-11
-1.50945e-10
-2.42889e-10
-1.60547e-10
-1.92315e-10
-3.41285e-10
-1.68941e-10
-1.22226e-09
-3.65865e-10
-6.91904e-09
-2.23745e-09
-4.63643e-08
-2.44186e-08
-1.85628e-07
-4.47509e-07
-1.93879e-05
-3.10244e-05
-1.78351e-05
-0.000154674
-1.27175e-05
-0.000151101
-6.71842e-06
-0.000137315
-9.83613e-05
1.61679e-05
-7.21657e-05
7.46421e-07
-2.76077e-05
3.93828e-08
4.74266e-06
1.1223e-07
2.23013e-06
2.02169e-08
4.90558e-07
-6.00202e-10
2.19103e-08
-1.11647e-09
6.59366e-10
-2.16722e-10
-4.90736e-10
-9.31121e-11
-2.76264e-10
-1.12953e-10
-1.78501e-10
-3.75668e-10
-1.174e-10
-2.40418e-09
-2.19986e-10
-2.44961e-08
-2.15497e-09
-4.51224e-07
-3.50014e-08
-6.89547e-06
-4.58115e-05
-6.76267e-06
-0.000159194
-5.26525e-06
-0.000152598
-3.08729e-06
-0.000139428
-0.000101499
9.35582e-06
3.70579e-15
1.26699e-05
2.41512e-15
1.33097e-05
8.58171e-16
1.35356e-05
-1.58661e-06
1.37977e-05
-1.69732e-06
1.41617e-05
-1.7681e-06
1.44593e-05
-1.72537e-06
1.4533e-05
-1.51168e-06
1.42409e-05
-1.11831e-06
1.35988e-05
-6.82764e-07
1.27516e-05
-3.43997e-07
1.17974e-05
1.36278e-07
1.07007e-05
1.0444e-06
9.61638e-06
1.70701e-06
8.82638e-06
1.92859e-06
8.59323e-06
1.85584e-06
9.13507e-06
1.83475e-06
1.02989e-05
2.62426e-06
1.23334e-05
3.47766e-06
1.5586e-05
3.79533e-06
1.9934e-05
3.74387e-06
2.55314e-05
2.88953e-06
2.97708e-06
3.74371e-05
-3.6387e-15
2.69685e-14
-3.79818e-15
2.56356e-14
-1.5396e-15
2.5571e-14
2.38319e-07
8.89075e-14
5.98153e-07
1.24985e-13
1.01556e-06
1.31406e-13
1.6171e-06
1.32536e-13
2.47889e-06
1.17583e-13
3.64064e-06
6.32138e-14
5.05929e-06
2.74961e-16
6.45434e-06
2.54509e-08
7.20074e-06
2.64272e-07
7.19838e-06
8.55078e-07
6.66129e-06
1.69279e-06
5.87677e-06
2.19337e-06
5.75956e-06
1.97305e-06
6.68727e-06
9.07038e-07
7.97285e-06
1.33869e-06
1.00862e-05
1.36432e-06
1.35791e-05
3.02412e-07
1.79367e-05
-6.13761e-07
2.28837e-05
-2.05744e-06
-4.79366e-06
3.06545e-05
-3.05735e-15
3.63231e-14
-1.58674e-14
5.64064e-14
-8.95703e-14
1.28574e-13
-1.95654e-13
2.24272e-13
-2.91349e-13
2.53926e-13
-3.83544e-13
2.45529e-13
-4.80843e-13
2.28019e-13
-6.02158e-13
1.96183e-13
-6.70659e-13
7.98968e-14
-5.19295e-13
-4.97995e-14
5.36548e-09
3.03077e-11
1.099e-07
5.38942e-10
4.2771e-07
5.76161e-10
9.17674e-07
9.64243e-10
1.77699e-06
8.49576e-10
3.40668e-06
1.74638e-07
5.38065e-06
-1.286e-07
6.53755e-06
1.81789e-07
8.68516e-06
-7.19219e-07
1.2531e-05
-3.54344e-06
1.66395e-05
-4.72223e-06
2.12622e-05
-6.68013e-06
-1.05871e-05
2.70556e-05
2.07494e-14
1.75862e-14
1.95094e-14
5.70724e-14
-7.38139e-14
1.8556e-13
-2.98437e-13
3.51516e-13
-5.90168e-13
4.05459e-13
-9.53727e-13
4.00687e-13
-1.44862e-12
3.57898e-13
-2.17911e-12
2.64185e-13
-3.02931e-12
-1.42411e-14
-3.45948e-12
-6.99553e-13
2.04536e-11
6.39558e-12
5.26781e-10
1.5742e-11
1.05077e-09
1.48351e-11
1.9731e-09
1.14993e-11
2.81578e-09
1.10905e-11
6.39984e-08
1.03286e-10
3.87776e-07
-1.40713e-10
2.22028e-06
-6.04074e-13
7.07749e-06
-8.24143e-07
1.32685e-05
-2.36898e-06
1.67315e-05
-3.89218e-06
2.04738e-05
-7.74405e-06
-1.49125e-05
2.50483e-05
7.4071e-15
3.36055e-15
1.60853e-14
1.63532e-14
-3.27998e-14
1.23049e-13
-2.00796e-13
2.62082e-13
-4.71314e-13
3.43724e-13
-8.44253e-13
3.70822e-13
-1.34566e-12
3.40889e-13
-2.06375e-12
2.4927e-13
-3.085e-12
8.21362e-14
-4.30251e-12
-4.76595e-13
-5.39034e-12
-1.42792e-12
7.74119e-12
2.5837e-12
1.60673e-11
6.64754e-12
2.58636e-11
1.35506e-12
3.67039e-11
2.23422e-13
1.41346e-10
1.48249e-12
6.97226e-13
-8.96797e-14
9.42895e-15
-6.37274e-15
8.07017e-08
-1.68902e-14
9.08594e-07
-1.79268e-15
4.31108e-06
-5.32098e-16
1.17836e-05
1.09436e-17
9.87776e-18
2.12546e-05
6.41687e-16
5.0838e-16
-3.86724e-17
1.53889e-15
-1.57402e-14
5.0506e-14
-9.07441e-14
1.21335e-13
-2.352e-13
1.80903e-13
-4.48908e-13
2.16362e-13
-7.15132e-13
2.20575e-13
-1.00948e-12
1.8873e-13
-1.31378e-12
1.16056e-13
-1.64131e-12
1.20723e-15
-2.09493e-12
-2.88759e-13
-1.71022e-12
-3.67429e-13
-1.04569e-12
-2.54437e-13
2.47929e-13
6.2133e-14
3.50004e-13
1.21347e-13
1.20793e-12
6.24559e-13
1.12407e-13
4.63714e-14
1.60929e-14
8.58646e-16
2.83121e-16
1.87153e-17
2.21238e-17
-1.45846e-15
5.93543e-18
-5.1591e-16
-1.85678e-17
3.28811e-16
1.32637e-16
-1.37847e-17
1.04054e-17
1.37823e-16
-4.75781e-17
1.21575e-16
-5.82785e-15
1.45562e-14
-3.08822e-14
4.03617e-14
-8.45102e-14
6.64024e-14
-1.71024e-13
8.56508e-14
-2.89264e-13
9.41501e-14
-4.35256e-13
8.97155e-14
-6.06071e-13
7.11268e-14
-8.01746e-13
3.87966e-14
-1.03344e-12
-8.74253e-15
-1.25259e-12
-1.21993e-13
-1.40295e-12
-2.00628e-13
-1.41284e-12
-2.36569e-13
-1.31951e-12
-2.34062e-13
-4.88287e-13
-7.65459e-14
-1.34093e-13
-1.25713e-14
-2.41692e-14
-1.44367e-16
-1.31508e-16
2.65634e-14
3.89425e-15
2.70193e-14
7.95957e-16
1.61446e-14
-5.00591e-16
6.24426e-15
5.01613e-16
-1.58884e-16
-1.9285e-18
3.11151e-17
-5.36509e-18
2.47355e-17
-1.48945e-15
3.27519e-15
-7.94294e-15
1.01643e-14
-2.25759e-14
1.7807e-14
-4.74722e-14
2.4032e-14
-8.34835e-14
2.76354e-14
-1.3078e-13
2.80605e-14
-1.89497e-13
2.50994e-14
-2.59971e-13
1.9039e-14
-3.41541e-13
1.08857e-14
-4.35963e-13
2.48201e-15
-5.3505e-13
-2.16482e-14
-6.2827e-13
-4.87571e-14
-7.0641e-13
-6.5769e-14
-6.92618e-13
-5.71994e-14
-6.45525e-13
-2.88062e-14
-5.28598e-13
1.29869e-15
-3.16108e-13
5.61152e-15
-1.41259e-13
5.66705e-15
-4.7544e-14
2.004e-15
-1.27002e-14
-2.09916e-15
-8.49416e-15
-9.93427e-16
-5.37739e-19
4.67627e-18
-9.87942e-19
3.75144e-18
-2.66598e-16
5.68096e-16
-1.50426e-15
1.904e-15
-4.42618e-15
3.44535e-15
-9.55161e-15
4.73358e-15
-1.71786e-14
5.53565e-15
-2.74596e-14
5.76444e-15
-4.03828e-14
5.36334e-15
-5.57377e-14
4.38943e-15
-7.28392e-14
3.00883e-15
-9.09844e-14
1.68819e-15
-1.10101e-13
7.49278e-16
-1.30534e-13
1.83727e-16
-1.48946e-13
-8.4609e-16
-1.54429e-13
-1.31358e-15
-1.38226e-13
-2.47138e-16
-1.04316e-13
-2.6845e-15
-6.89179e-14
-7.17728e-15
-3.4267e-14
-1.16538e-14
-7.42944e-15
-1.59488e-14
1.40769e-14
-1.93424e-14
-2.59107e-14
3.31739e-14
-5.25403e-20
4.13219e-19
-9.84925e-20
7.21907e-19
-3.14025e-17
6.82491e-17
-1.95573e-16
2.44691e-16
-6.02272e-16
4.5128e-16
-1.33033e-15
6.18607e-16
-2.42183e-15
7.15439e-16
-3.88429e-15
7.29461e-16
-5.62438e-15
6.27149e-16
-7.40008e-15
3.9545e-16
-8.63417e-15
1.71405e-17
-9.01055e-15
-3.98184e-16
-8.75593e-15
-6.91205e-16
-7.51387e-15
-7.1032e-16
-4.18393e-15
-6.59107e-16
-6.93381e-16
-8.21486e-16
1.888e-14
-1.47049e-15
6.08478e-14
-3.74852e-15
7.01052e-14
-6.76957e-15
7.13257e-14
-5.91603e-15
7.12976e-14
-9.62364e-15
8.35276e-14
-1.0438e-14
-1.1929e-14
1.27996e-13
-3.52252e-22
2.5844e-20
-6.43408e-21
2.06106e-19
-1.90857e-18
4.89604e-18
-1.49586e-17
1.92249e-17
-5.09079e-17
3.79305e-17
-1.17153e-16
5.15151e-17
-2.15195e-16
5.55928e-17
-3.37972e-16
4.67734e-17
-4.41839e-16
1.5372e-17
-4.23713e-16
-4.82405e-17
-2.81756e-17
-1.92976e-16
1.28445e-15
-4.71486e-16
3.24145e-15
-8.62373e-16
5.01679e-15
-8.22903e-16
7.13061e-15
-6.19967e-16
1.20204e-14
-3.67773e-16
2.27833e-14
-2.66051e-16
3.20624e-14
-3.65646e-16
3.37303e-14
-5.62721e-16
3.19077e-14
-6.93701e-16
2.68233e-14
-6.27246e-16
2.62694e-14
-3.16189e-16
-2.0408e-16
3.24405e-14
1.77571e-21
5.59173e-21
3.9534e-20
3.97013e-20
-1.29626e-20
3.01177e-19
-4.70868e-19
1.60104e-18
-2.30346e-18
3.72742e-18
-5.95841e-18
4.76439e-18
-1.08747e-17
3.89526e-18
-1.45012e-17
2.46415e-19
-7.27289e-18
-4.62718e-18
6.33998e-17
-3.65785e-17
3.14728e-16
-3.48713e-17
9.58282e-16
-4.25448e-17
1.41382e-15
-1.05976e-16
1.59345e-15
-1.15312e-16
1.25404e-15
-8.82303e-17
7.46939e-16
-4.62746e-17
6.73029e-16
-1.8408e-17
7.17497e-16
-1.36987e-17
1.08745e-15
-1.36493e-17
1.18932e-15
-1.77203e-17
8.95742e-16
-2.5509e-17
2.55259e-16
-3.61599e-17
-3.24868e-17
1.67927e-16
6.50852e-22
1.75724e-21
6.81219e-21
1.32565e-20
3.17228e-20
9.25418e-20
2.49427e-20
4.1073e-19
-6.65137e-20
8.68158e-19
-2.68836e-19
9.62455e-19
-4.42355e-19
5.9461e-19
-4.80512e-20
-1.60583e-19
2.64896e-18
-4.0673e-19
1.10918e-17
-1.58969e-18
1.27743e-17
-3.33792e-18
2.62906e-17
-4.5062e-18
8.49856e-17
-4.54808e-18
1.05476e-16
-4.46435e-18
9.23565e-17
-3.87069e-18
4.59124e-17
-3.87264e-18
2.66356e-17
-5.23658e-18
2.7811e-17
-7.25113e-18
3.42552e-17
-9.78678e-18
4.74547e-17
-1.14673e-17
7.07071e-17
-1.21839e-17
1.1556e-16
-1.15518e-17
-9.6406e-18
1.77165e-16
2.91585e-22
4.55644e-22
3.11282e-21
3.41581e-21
1.53192e-20
2.1797e-20
2.81503e-20
8.38153e-20
1.67654e-20
1.5885e-19
-9.1164e-21
1.47556e-19
-2.94646e-20
6.52197e-20
2.52199e-20
-5.97692e-21
5.49315e-20
-6.22583e-20
3.87579e-19
-2.91893e-19
1.02563e-18
-4.90834e-19
1.64133e-18
-5.50961e-19
2.12735e-18
-5.42462e-19
2.62984e-18
-4.51364e-19
2.90065e-18
-2.98607e-19
3.89644e-18
-1.94671e-19
7.80398e-18
-1.89141e-19
1.45493e-17
-2.02271e-19
2.35054e-17
-2.24533e-19
2.56595e-17
-2.25965e-19
2.51934e-17
-2.20131e-19
2.44807e-17
-2.18293e-19
-2.56882e-19
2.44095e-17
8.70323e-23
9.22903e-23
8.96565e-22
6.52962e-22
4.1806e-21
3.79612e-21
8.18602e-21
1.28526e-20
6.63677e-21
2.1488e-20
1.85996e-21
1.6164e-20
-4.79108e-24
5.03117e-21
1.05931e-21
-2.51819e-21
5.96189e-21
-7.47967e-21
4.01707e-20
-2.66257e-20
8.51103e-20
-4.53579e-20
1.2677e-19
-5.02555e-20
1.64582e-19
-4.49032e-20
1.63748e-19
-2.89356e-20
1.22557e-19
-1.18449e-20
1.18848e-19
-4.97575e-21
1.4134e-19
-4.79933e-21
1.83984e-19
-5.18814e-21
2.30442e-19
-5.88209e-21
2.6368e-19
-7.88422e-21
3.17222e-19
-1.68498e-20
4.90089e-19
-5.267e-20
-2.15111e-19
1.28438e-18
1.77143e-23
1.36864e-23
1.72754e-22
8.69748e-23
7.46911e-22
4.5349e-22
1.39404e-21
1.34559e-21
1.04958e-21
1.93793e-21
2.86866e-22
1.12385e-21
-6.32991e-23
2.42873e-22
-2.11953e-23
-1.04173e-22
1.85398e-22
-6.14801e-22
1.66972e-21
-1.81448e-21
4.25879e-21
-2.60857e-21
6.56878e-21
-2.73868e-21
8.06075e-21
-2.23013e-21
5.46035e-21
-1.20829e-21
2.36273e-21
-4.04191e-22
2.0375e-21
-1.56579e-22
2.46552e-21
-1.55741e-22
3.39786e-21
-1.90305e-22
4.94139e-21
-4.29008e-22
1.05081e-20
-2.21415e-21
4.38288e-20
-1.31012e-20
2.11418e-19
-6.05772e-20
-3.30082e-19
1.1432e-18
2.37663e-24
1.37882e-24
2.14732e-23
7.4789e-24
8.44638e-23
3.34385e-23
1.42364e-22
8.42903e-23
8.84169e-23
1.02835e-22
1.87939e-23
4.51965e-23
-3.81488e-24
-6.65379e-25
-6.64634e-24
-9.00307e-24
-1.48364e-23
-3.20742e-23
2.15853e-23
-7.26648e-23
1.00778e-22
-1.0231e-22
1.89625e-22
-1.08361e-22
2.16702e-22
-9.20133e-23
1.25303e-22
-5.51939e-23
4.80531e-23
-2.10154e-23
4.3355e-23
-7.35194e-24
5.71337e-23
-8.58045e-24
1.0692e-22
-2.72644e-23
4.64992e-22
-2.12747e-22
3.87567e-21
-1.83118e-21
3.32802e-20
-1.41949e-20
2.39366e-19
-1.00598e-19
-8.05598e-19
2.3073e-18
1.98038e-25
1.02175e-25
1.58227e-24
5.15974e-25
5.45343e-24
2.0351e-24
8.05701e-24
4.86661e-24
3.95632e-24
6.7821e-24
-6.0798e-26
4.16643e-24
-1.48642e-25
2.49765e-25
-7.01081e-25
-3.74711e-25
-1.69663e-24
-1.04506e-24
-1.63859e-24
-1.79926e-24
2.06139e-25
-3.08221e-24
2.79603e-24
-3.60139e-24
4.64166e-24
-3.46048e-24
3.55151e-24
-2.34003e-24
1.55743e-24
-8.65322e-25
1.3325e-24
-3.86399e-25
2.63231e-24
-1.34412e-24
1.79825e-23
-1.35367e-23
2.14289e-22
-1.46079e-22
2.49362e-21
-1.38726e-21
2.79411e-20
-1.47995e-20
3.33551e-19
-1.72057e-19
-1.60067e-18
3.93087e-18
1.28975e-26
1.13126e-26
9.37472e-26
7.15441e-26
3.1505e-25
3.26607e-25
5.46349e-25
9.10486e-25
3.86497e-25
1.48969e-24
2.51132e-26
9.0746e-25
-2.05746e-26
4.64491e-26
-3.49126e-26
-2.48543e-26
-5.93886e-26
-2.94569e-26
-9.74278e-26
-3.63807e-26
-8.58867e-26
-7.5623e-26
-2.17918e-26
-9.70383e-26
5.29497e-26
-9.15221e-26
7.25131e-26
-5.83204e-26
3.83495e-26
-1.95278e-26
4.40037e-26
-4.87533e-26
4.39358e-25
-5.71715e-25
7.0824e-24
-7.3952e-24
1.02597e-22
-8.44329e-23
1.26166e-21
-8.43606e-22
2.06696e-20
-1.35095e-20
3.97557e-19
-2.48663e-19
-2.50215e-18
5.22894e-18
1.66297e-27
1.38982e-27
1.4432e-26
8.85374e-27
5.79591e-26
4.26695e-26
1.2069e-25
1.26488e-25
8.66337e-26
2.17187e-25
4.93512e-27
1.02211e-25
-1.53228e-27
-5.53652e-27
-1.59552e-27
-2.55161e-27
-1.71353e-27
-1.74841e-27
-3.09952e-27
-1.57373e-27
-4.13094e-27
-1.82935e-27
-2.87332e-27
-1.69996e-27
-1.12466e-27
-1.31275e-27
1.76822e-28
-8.07817e-28
5.33676e-28
-1.02764e-27
5.17735e-27
-1.50206e-26
1.24566e-25
-2.44406e-25
2.37129e-24
-3.35659e-24
3.68665e-23
-4.08061e-23
5.03923e-22
-4.2202e-22
1.28748e-20
-1.02451e-20
3.90886e-19
-2.93627e-19
-3.19645e-18
5.53228e-18
1.90565e-28
8.65231e-29
1.79989e-27
5.53029e-28
7.85598e-27
2.79942e-27
1.74873e-26
8.7e-27
9.87246e-27
1.4233e-26
-6.06818e-28
-4.70262e-27
-1.65796e-28
-2.6553e-27
-1.24014e-28
-1.68022e-28
-1.02749e-28
-1.0665e-28
-1.13006e-28
-7.99824e-29
-1.00264e-28
-5.17195e-29
-7.3215e-29
-2.17197e-29
-3.07125e-29
-4.68428e-30
-1.92389e-29
-1.31097e-29
-1.55422e-29
-2.6087e-28
4.79699e-28
-5.24446e-27
2.27466e-26
-8.82103e-26
5.59835e-25
-1.35303e-24
1.04523e-23
-1.72209e-23
1.58916e-22
-1.79926e-22
6.36489e-21
-6.38986e-21
3.24188e-19
-2.74757e-19
-3.33239e-18
4.91879e-18
1.10833e-29
9.50643e-32
1.13117e-28
2.12411e-31
5.27062e-28
1.1236e-31
1.134e-27
-1.88922e-30
-4.5555e-28
-3.40906e-28
-2.96093e-28
-2.2453e-27
-1.45875e-29
-1.91798e-28
-8.48592e-30
-3.08523e-30
-6.54672e-30
-1.79095e-30
-4.61402e-30
-1.94856e-30
-2.1919e-30
-1.78545e-30
-2.98378e-31
-9.10906e-31
-2.78221e-31
-2.98425e-31
-1.33666e-30
-3.37513e-30
-2.28941e-29
-7.73803e-29
-2.46441e-28
-1.54978e-27
-1.04811e-28
-2.95826e-26
7.37839e-26
-4.94796e-25
2.10764e-24
-6.44944e-24
3.85837e-23
-6.90323e-23
2.43894e-21
-3.3322e-21
1.75971e-19
-1.91963e-19
-2.8108e-18
3.27747e-18
4.01188e-33
7.74498e-35
4.38956e-33
1.33128e-34
-1.12206e-31
9.42704e-35
-4.17765e-30
1.64053e-35
-2.17473e-28
-4.33654e-36
-2.13698e-29
-9.0154e-35
-2.76671e-31
-2.30468e-34
-1.2307e-31
-2.2547e-33
-1.41409e-31
-4.97069e-33
-1.42253e-31
-3.55651e-33
-9.48573e-32
-1.73473e-33
-2.32647e-32
-1.64577e-33
-3.21818e-32
-2.65559e-32
-5.31676e-31
-7.69044e-31
-1.01564e-29
-1.87733e-29
-1.74652e-28
-4.3209e-28
-2.51185e-27
-9.17756e-27
-1.7931e-26
-1.66023e-25
1.23459e-25
-2.17282e-24
6.12948e-24
-2.35239e-23
6.83985e-22
-1.55935e-21
7.53764e-20
-1.26189e-19
-2.27248e-18
1.81216e-18
2.4032e-36
5.93902e-49
3.60324e-36
5.71034e-47
9.62782e-37
8.04905e-46
-1.74111e-37
-5.53806e-45
-1.78554e-36
-3.49781e-42
-5.62506e-36
-3.16332e-39
-6.96883e-35
-3.60344e-37
-3.48394e-34
-3.92036e-36
-3.25055e-34
-1.42411e-35
-1.38163e-34
-2.70763e-35
-1.38255e-34
-4.12694e-35
-2.13302e-34
-1.96261e-34
-5.21181e-33
-5.92924e-33
-1.39623e-31
-1.65342e-31
-3.29028e-30
-4.45172e-30
-7.28016e-29
-1.12075e-28
-1.46291e-27
-2.62485e-27
-1.86455e-26
-5.03438e-26
-8.43852e-26
-6.6585e-25
-2.93822e-25
-7.69238e-24
1.03977e-22
-7.52145e-22
2.54546e-20
-8.28134e-20
-1.67481e-18
8.82262e-19
9.97021e-49
-4.39643e-53
3.04484e-47
-5.69365e-54
-3.23814e-46
-8.19664e-51
-5.84761e-45
-1.426e-47
-3.47808e-42
-4.63807e-45
-2.03479e-39
-2.67703e-42
-8.26672e-38
-1.84014e-39
-6.11614e-37
-6.02189e-38
-1.57455e-36
-2.92371e-37
-2.32721e-36
-6.2521e-37
-3.98738e-36
-1.31724e-36
-4.02139e-35
-2.92497e-35
-1.22208e-33
-1.02979e-33
-3.48584e-32
-3.26906e-32
-9.3511e-31
-9.71169e-31
-2.4481e-29
-2.68961e-29
-5.86841e-28
-6.76855e-28
-8.49864e-27
-1.34014e-26
-5.24809e-26
-1.82478e-25
-7.89908e-25
-2.63706e-24
-1.37107e-22
-4.19235e-22
2.89691e-21
-5.6018e-20
-1.15733e-18
2.88065e-19
-4.85067e-56
-1.72397e-55
-5.40907e-54
-3.33091e-55
-8.15004e-51
-5.20125e-53
-1.42097e-47
-4.57203e-50
-4.62067e-45
-1.5766e-47
-3.37273e-42
-8.54637e-45
-8.91772e-40
-6.92282e-42
-1.13753e-38
-3.07894e-40
-3.15529e-38
-1.71393e-39
-5.49977e-38
-5.46556e-39
-2.02227e-37
-1.04955e-37
-6.4203e-36
-4.7297e-36
-2.32055e-34
-1.7178e-34
-7.65524e-33
-5.99026e-33
-2.35967e-31
-1.95577e-31
-7.07137e-30
-5.83789e-30
-1.848e-28
-1.52498e-28
-2.68693e-27
-3.07255e-27
-2.06948e-26
-4.47676e-26
-6.09348e-25
-1.12862e-24
-2.6681e-22
-2.53381e-22
-1.69323e-20
-3.52909e-20
-7.6334e-19
-2.15726e-20
-4.36136e-57
-1.84107e-56
-8.44927e-57
-3.54065e-55
-5.17937e-53
-1.17847e-55
-4.71062e-50
-7.40876e-53
-1.57154e-47
-3.88094e-50
-9.48233e-45
-3.56357e-47
-3.94482e-42
-1.78676e-45
-4.99773e-41
-8.68011e-44
-1.48652e-40
-4.89114e-42
-6.87652e-40
-2.78475e-40
-2.39825e-38
-1.51587e-38
-1.05639e-36
-6.35287e-37
-4.12718e-35
-2.611e-35
-1.53638e-33
-1.0039e-33
-5.35001e-32
-3.53111e-32
-1.74209e-30
-1.10524e-30
-4.63161e-29
-2.91674e-29
-6.4538e-28
-6.05398e-28
-6.92396e-27
-1.08915e-26
-4.78813e-25
-6.48052e-25
-2.54091e-22
-1.54745e-22
-2.08756e-20
-2.05108e-20
-4.65294e-19
-2.09684e-19
-5.90005e-57
-4.80639e-58
-1.2886e-57
-1.91745e-57
-1.14132e-55
-2.9065e-57
-7.11786e-53
-2.90679e-54
-3.91224e-50
-1.52926e-51
-4.31181e-48
-1.49586e-48
-2.26814e-46
-1.74338e-46
-1.32029e-44
-9.94229e-45
-8.4964e-43
-6.16258e-43
-6.16526e-41
-3.53103e-41
-3.19604e-39
-1.6616e-39
-1.48271e-37
-7.85649e-38
-6.65158e-36
-3.58658e-36
-2.76905e-34
-1.49368e-34
-1.05729e-32
-5.4856e-33
-3.54659e-31
-1.76077e-31
-8.98969e-30
-4.66147e-30
-1.26439e-28
-1.01389e-28
-2.59883e-27
-3.52276e-27
-3.91997e-25
-4.23444e-25
-1.92385e-22
-9.10144e-23
-1.72082e-20
-1.10557e-20
-2.50047e-19
-2.44382e-19
-2.74677e-59
-1.43744e-59
-4.38726e-59
-2.24159e-60
-1.82005e-57
-2.3386e-58
-2.62038e-54
-2.82464e-55
-1.29985e-51
-1.97771e-52
-2.7215e-49
-8.34364e-50
-2.33158e-47
-7.95918e-48
-1.64684e-45
-7.1992e-46
-1.207e-43
-4.94248e-44
-6.75959e-42
-2.88349e-42
-3.56028e-40
-1.64072e-40
-1.89865e-38
-8.72071e-39
-9.59668e-37
-4.2742e-37
-4.322e-35
-1.88043e-35
-1.74684e-33
-7.03019e-34
-5.84336e-32
-2.29246e-32
-1.33582e-30
-5.71189e-31
-2.36041e-29
-1.72424e-29
-1.4164e-27
-1.70408e-27
-3.02667e-25
-2.55481e-25
-1.30439e-22
-4.91702e-23
-1.18364e-20
-5.38515e-21
-1.12119e-19
-1.79106e-19
-1.88097e-62
-3.73407e-61
-5.09302e-62
-1.30431e-62
-2.19789e-58
-1.11658e-59
-2.73891e-55
-1.2084e-56
-5.67436e-53
-1.17001e-53
-1.01261e-50
-4.78344e-51
-1.24681e-48
-5.2874e-49
-1.19404e-46
-4.30735e-47
-8.51279e-45
-3.28796e-45
-5.67444e-43
-2.35345e-43
-3.60215e-41
-1.47557e-41
-2.13621e-39
-8.1468e-40
-1.18153e-37
-4.2253e-38
-5.59755e-36
-1.94637e-36
-2.39944e-34
-7.53417e-35
-7.45575e-33
-1.87659e-33
-1.39935e-31
-4.89973e-32
-6.57522e-30
-5.91483e-30
-9.06811e-28
-8.63029e-28
-2.01623e-25
-1.26521e-25
-7.98769e-23
-2.27304e-23
-6.82384e-21
-2.22103e-21
-3.98685e-20
-9.16226e-20
-1.09253e-64
-6.84285e-63
-4.99417e-64
-5.8894e-64
-1.07297e-59
-3.87635e-61
-1.16458e-56
-4.26446e-58
-2.71043e-54
-4.42603e-55
-6.50859e-52
-2.00462e-52
-7.18491e-50
-2.3855e-50
-6.59577e-48
-2.32172e-48
-5.86996e-46
-2.00205e-46
-4.68875e-44
-1.53579e-44
-3.15167e-42
-1.0649e-42
-1.98219e-40
-6.27415e-41
-1.19988e-38
-3.69457e-39
-6.90037e-37
-2.16635e-37
-3.48632e-35
-3.64567e-36
-4.08278e-34
-1.00307e-34
-1.94925e-32
-1.50964e-32
-3.3591e-30
-2.34962e-30
-4.89584e-28
-3.42453e-28
-1.0795e-25
-4.71806e-26
-4.11261e-23
-8.32966e-24
-3.06957e-21
-7.05956e-22
-1.03336e-20
-3.35937e-20
-1.87537e-66
-1.10406e-64
-1.01078e-63
4.19968e-64
-3.77631e-61
-9.72151e-63
-4.17145e-58
-8.87004e-60
-1.00398e-55
-8.33361e-57
-2.44545e-53
-6.82036e-54
-3.1942e-51
-9.15152e-52
-3.51867e-49
-1.01773e-49
-3.37777e-47
-9.70653e-48
-2.99514e-45
-7.94614e-46
-2.13497e-43
-6.02758e-44
-1.43928e-41
-4.22765e-42
-2.11719e-39
-3.06462e-40
-1.72004e-37
-5.45605e-39
-6.4762e-37
-1.23277e-37
-7.54589e-35
-2.13208e-35
-1.13063e-32
-3.7188e-33
-1.75588e-30
-5.90537e-31
-2.58136e-28
-8.54744e-29
-4.36117e-26
-1.14033e-26
-1.62098e-23
-2.02898e-24
-9.51407e-22
-1.53364e-22
-2.01347e-21
-8.12094e-21
6.47601e-66
2.52105e-65
-2.92645e-64
2.38279e-63
-1.38602e-62
3.84602e-63
-8.64671e-60
-2.51177e-61
-2.65516e-57
-2.89893e-58
-7.83359e-55
-1.8391e-55
-1.17977e-52
-2.78944e-53
-1.48452e-50
-3.48704e-51
-1.52734e-48
-3.56189e-49
-1.40257e-46
-3.08685e-47
-1.16536e-44
-2.91632e-45
-2.37019e-42
-3.0826e-43
-2.55469e-40
-6.16892e-42
-8.09703e-40
-6.77835e-41
-1.04358e-37
-1.34642e-38
-1.84724e-35
-2.72832e-36
-3.20944e-33
-4.97583e-34
-5.08672e-31
-8.17502e-32
-7.37016e-29
-1.2125e-29
-1.09969e-26
-1.63342e-27
-3.86499e-24
-2.88655e-25
-1.8493e-22
-2.24528e-23
-3.27657e-22
-1.56871e-21
3.66595e-65
1.89712e-65
1.36559e-64
1.95728e-63
-1.37756e-62
3.68341e-62
-2.48934e-61
-1.60185e-62
-6.34888e-59
-6.16595e-60
-1.97985e-56
-3.63133e-57
-3.43149e-54
-5.77804e-55
-4.75218e-52
-7.7376e-53
-4.81548e-50
-9.1063e-51
-4.69394e-48
-8.85579e-49
-1.70017e-45
-8.79159e-47
-3.03497e-43
-7.97255e-45
-7.36371e-43
-1.41789e-43
-5.84867e-41
-3.59439e-42
-1.25158e-38
-8.50837e-40
-2.52756e-36
-1.86315e-37
-4.59593e-34
-3.64536e-35
-7.53393e-32
-6.38314e-33
-1.1161e-29
-1.00151e-30
-1.53146e-27
-1.41274e-28
-5.08307e-25
-2.43899e-26
-2.43637e-23
-2.33899e-24
-4.5525e-23
-3.03865e-22
3.32732e-65
8.10451e-66
1.33714e-63
7.10181e-64
-9.63339e-65
1.86317e-62
-1.99177e-61
1.83062e-61
-1.13779e-60
-2.71576e-62
-3.55631e-58
-3.95722e-59
-6.24652e-56
-7.82008e-57
-9.74455e-54
-1.15624e-54
-1.16221e-51
-1.46321e-52
-1.3642e-49
-1.76845e-50
-4.40427e-47
-1.8521e-48
-5.53531e-45
-1.42589e-46
-1.67416e-44
-2.58572e-45
-3.32699e-42
-1.14683e-43
-8.1453e-40
-3.07999e-41
-1.77926e-37
-7.49228e-39
-3.47258e-35
-1.62135e-36
-6.06708e-33
-3.1247e-34
-9.50265e-31
-5.36542e-32
-1.35274e-28
-8.21687e-30
-4.00548e-26
-1.4106e-27
-2.48209e-24
-1.79496e-25
-4.58719e-24
-5.41835e-23
1.53201e-65
1.83449e-66
7.39249e-64
1.11569e-64
9.65128e-63
2.73246e-63
-1.73308e-63
2.93712e-62
-2.85709e-62
-1.35637e-64
-3.7517e-60
-2.18363e-61
-7.68412e-58
-4.51343e-59
-1.20401e-55
-7.88529e-57
-1.81131e-53
-1.43175e-54
-2.73634e-51
-2.01863e-52
-7.20752e-49
-3.01329e-50
-7.72718e-47
-1.38452e-48
-2.90929e-46
-8.67284e-48
-1.09194e-43
-2.31414e-45
-2.99191e-41
-7.27627e-43
-7.26319e-39
-2.02792e-40
-1.56834e-36
-5.00898e-38
-3.016e-34
-1.09705e-35
-5.16835e-32
-2.1297e-33
-7.9448e-30
-3.66082e-31
-2.29247e-27
-7.72755e-29
-2.05522e-25
-8.99543e-27
-2.80488e-25
-5.94971e-24
3.39836e-66
7.17511e-70
1.27476e-64
9.94122e-69
1.62947e-63
6.70815e-68
-8.4106e-66
-6.75085e-71
-1.43034e-64
-1.10455e-67
-1.72222e-62
-1.8726e-64
-3.51145e-60
-6.09485e-62
-7.95993e-58