/*--------------------------------*- C++ -*----------------------------------*\
| =========                 |                                                 |
| \\      /  F ield         | OpenFOAM: The Open Source CFD Toolbox           |
|  \\    /   O peration     | Version:  v2012                                 |
|   \\  /    A nd           | Website:  www.openfoam.com                      |
|    \\/     M anipulation  |                                                 |
\*---------------------------------------------------------------------------*/
FoamFile
{
    version     2.0;
    format      ascii;
    class       volScalarField;
    location    "0.6";
    object      epsilon;
}
// * * * * * * * * * * * * * * * * * * * * * * * * * * * * * * * * * * * * * //

dimensions      [0 2 -3 0 0 0 0];


internalField   nonuniform List<scalar> 
2268
(
0.0259901
0.0722932
0.123309
0.168645
0.202199
0.22811
0.251646
0.273196
0.29321
0.31198
0.3294
0.345053
0.358342
0.368188
0.372135
0.369879
0.357314
0.331585
0.292976
0.243898
0.202465
0.155551
0.13039
0.0319556
0.0493454
0.0712708
0.0916681
0.107757
0.120365
0.131087
0.14086
0.150045
0.158768
0.166998
0.174619
0.181458
0.187231
0.19148
0.194779
0.196358
0.195402
0.191336
0.182732
0.168883
0.13893
0.142791
0.0385277
0.0451547
0.0616679
0.0772145
0.0893835
0.098942
0.107114
0.11457
0.121625
0.128396
0.134886
0.141044
0.146796
0.152042
0.156678
0.161045
0.165071
0.168615
0.171429
0.172193
0.168628
0.156759
0.20484
0.0396575
0.0443898
0.0580409
0.0706962
0.0809249
0.0892698
0.0965163
0.103166
0.109479
0.115566
0.121449
0.127115
0.132544
0.13772
0.142654
0.147611
0.15272
0.15809
0.163602
0.168303
0.170612
0.175176
0.276845
0.0407102
0.0448838
0.0559366
0.0664862
0.0754963
0.0832153
0.0901014
0.0964812
0.102544
0.108387
0.114052
0.119551
0.124905
0.130144
0.135334
0.140699
0.146459
0.152845
0.159866
0.167024
0.174222
0.192657
0.347488
0.0415306
0.0456777
0.054439
0.0632823
0.071431
0.0788323
0.0856387
0.0920036
0.0980451
0.103848
0.109468
0.114944
0.120329
0.125684
0.131101
0.136786
0.14301
0.150093
0.158203
0.167349
0.179003
0.209744
0.420284
0.0412587
0.0462405
0.0530746
0.0606125
0.0682283
0.0755316
0.082411
0.0888808
0.095004
0.100857
0.106507
0.112024
0.117484
0.122972
0.128596
0.134554
0.141158
0.148807
0.157852
0.168793
0.184498
0.226616
0.506722
0.0394914
0.0458996
0.0515009
0.058372
0.0658138
0.0731694
0.0801781
0.0867791
0.0930054
0.0989285
0.104629
0.110202
0.115747
0.121366
0.127179
0.133385
0.140334
0.148498
0.158414
0.170986
0.189996
0.241573
0.65282
0.313064
1.0225
1.76776
4.77564
4.15664
4.28794
4.51439
4.74785
5.01533
5.3934
5.96912
6.68889
7.41351
7.99858
8.30863
7.93167
6.30405
3.89671
1.00984
0.333471
1.44122
7.9999
8.04007
5.8946
4.31106
4.18789
4.10844
3.66426
3.38506
3.44475
3.60384
3.72247
3.71656
3.58681
3.23656
2.60645
1.89803
1.03233
0.424414
2.9897
10.8981
9.37328
7.21067
5.14121
6.94294
6.14468
4.84318
3.59219
3.47079
3.40873
3.17928
2.97427
2.72465
2.37323
1.93419
1.59153
1.20962
0.464321
3.27236
17.6716
12.1293
8.77129
7.65678
8.09912
8.16488
7.77193
6.64744
4.85792
3.30792
2.80275
2.40271
2.10378
1.81494
1.53464
1.39169
1.31398
0.511432
1.26004
19.3448
16.0733
9.59357
9.33391
9.25861
9.37406
9.05511
7.83446
5.67784
3.40115
2.11325
1.83289
1.58522
1.38651
1.24915
1.22682
1.39635
0.520584
1.02556
8.33472
18.7768
9.56833
11.0268
10.1753
9.76501
9.56198
8.46036
6.29824
3.80422
1.93496
1.31552
1.18482
1.08488
1.05832
1.10514
1.47933
0.551562
0.976861
4.93156
17.8076
10.0699
12.6196
10.7377
9.63242
9.6897
8.7512
6.66271
4.20643
2.10199
0.906311
0.886509
0.890999
0.939948
1.02691
1.56947
0.665186
0.906585
3.80293
16.2167
10.7756
12.1906
10.64
9.25872
9.70307
8.90496
6.86755
4.46608
2.34669
0.744806
0.725645
0.781293
0.870933
0.984551
1.6595
0.0371137
0.0431257
0.0490436
0.0560684
0.0635497
0.0709868
0.0781215
0.0848571
0.0911962
0.0971945
0.102943
0.10858
0.114233
0.120033
0.126112
0.132686
0.140153
0.149085
0.160279
0.175011
0.196785
0.240911
0.378119
0.0428311
0.0439022
0.0494207
0.0569614
0.0641254
0.0713665
0.0783981
0.0850598
0.0913486
0.0973305
0.1031
0.108807
0.114495
0.12039
0.126699
0.13371
0.141812
0.151586
0.164031
0.180147
0.20154
0.234519
0.291476
0.161971
0.094552
0.0767378
0.0692214
0.0690364
0.0734702
0.0793802
0.085559
0.0916202
0.0974921
0.103362
0.109636
0.115599
0.121839
0.128718
0.136325
0.144734
0.15501
0.168345
0.184608
0.203653
0.227708
0.256529
0.260018
0.141387
0.124134
0.116695
0.112913
0.111271
0.11125
0.1126
0.115145
0.118644
0.120924
0.116402
0.116835
0.122242
0.129184
0.137508
0.147435
0.160253
0.17494
0.189801
0.206141
0.225605
0.245261
0.270865
0.152237
0.137614
0.1333
0.13117
0.129896
0.129379
0.129807
0.131379
0.133996
0.13667
0.138101
0.141202
0.146001
0.149876
0.145316
0.148931
0.160803
0.176246
0.192703
0.211227
0.229767
0.244964
0.265222
0.152795
0.13953
0.137163
0.136965
0.137429
0.138392
0.14002
0.142488
0.145715
0.149194
0.152411
0.156135
0.161049
0.166131
0.170074
0.175528
0.182764
0.188054
0.195515
0.211819
0.229982
0.245028
0.260029
0.149952
0.137095
0.13566
0.136898
0.139045
0.141753
0.14505
0.149024
0.153617
0.158451
0.163212
0.168131
0.173654
0.179594
0.185552
0.192242
0.200344
0.208977
0.218946
0.232045
0.246811
0.261393
0.257193
0.146844
0.133234
0.13191
0.133901
0.137209
0.141299
0.14606
0.151486
0.157511
0.163908
0.170391
0.176988
0.183925
0.191211
0.198677
0.206502
0.215085
0.224617
0.235782
0.249543
0.265042
0.278862
0.25597
0.143546
0.128826
0.127177
0.129399
0.133332
0.138308
0.144113
0.150667
0.157889
0.165629
0.173695
0.182003
0.190586
0.19944
0.208465
0.217684
0.227308
0.237586
0.248905
0.261556
0.27525
0.289177
0.254491
0.139879
0.124142
0.121993
0.124111
0.128252
0.133671
0.140087
0.147376
0.155447
0.164183
0.173445
0.183129
0.193172
0.203497
0.213987
0.224589
0.23539
0.246572
0.25835
0.270901
0.284296
0.298554
0.252299
0.135916
0.11932
0.116617
0.118436
0.122494
0.128009
0.134666
0.142319
0.150872
0.160229
0.170279
0.180912
0.192024
0.203498
0.2152
0.227035
0.239007
0.251205
0.263771
0.276885
0.290776
0.305739
0.249389
0.131812
0.114466
0.111209
0.112624
0.116409
0.121769
0.128376
0.136079
0.144784
0.154412
0.16487
0.176056
0.187857
0.20014
0.212768
0.225627
0.238669
0.251923
0.265489
0.279554
0.294415
0.310499
0.244414
0.127339
0.1096
0.105883
0.106856
0.110254
0.115287
0.12163
0.129136
0.137722
0.147324
0.15787
0.169275
0.181434
0.194224
0.207513
0.221185
0.23517
0.249457
0.26412
0.279337
0.295436
0.312945
0.23747
0.122573
0.104785
0.100728
0.101278
0.104228
0.108827
0.114759
0.121889
0.130149
0.139494
0.149876
0.161234
0.173485
0.18653
0.200256
0.214558
0.229356
0.244623
0.260409
0.276879
0.294373
0.3135
0.229049
0.117675
0.100123
0.0958347
0.0959999
0.098493
0.102593
0.108024
0.114659
0.122451
0.131374
0.141409
0.152523
0.164667
0.177773
0.191758
0.206537
0.222038
0.238228
0.255139
0.272919
0.291911
0.312782
0.219782
0.112843
0.0957249
0.0912898
0.0911105
0.0931597
0.0967528
0.10163
0.107701
0.114938
0.123336
0.132902
0.14364
0.155537
0.168565
0.182678
0.197822
0.213944
0.231011
0.249048
0.268186
0.288761
0.31146
0.21031
0.108272
0.0917025
0.0871747
0.0866835
0.0883085
0.0914047
0.0957313
0.101211
0.107844
0.115664
0.124695
0.134979
0.146544
0.159406
0.173562
0.188997
0.205684
0.223606
0.242782
0.26333
0.285565
0.31016
0.201207
0.104144
0.0881564
0.0835599
0.0827784
0.0839992
0.0866174
0.0904115
0.0953176
0.101349
0.108562
0.117035
0.126831
0.138023
0.150673
0.164828
0.180515
0.197744
0.216519
0.236863
0.258881
0.282856
0.309412
0.192942
0.10061
0.0851723
0.080503
0.0794392
0.080272
0.0824338
0.0857209
0.0900823
0.0955441
0.102179
0.110087
0.119391
0.130204
0.14263
0.156768
0.172698
0.19047
0.210119
0.231678
0.255237
0.281038
0.309629
0.185873
0.0977897
0.0828171
0.0780461
0.0766945
0.0771485
0.0788737
0.0816818
0.0855322
0.090463
0.0965621
0.103952
0.112782
0.123218
0.135433
0.149563
0.165746
0.184082
0.204642
0.227475
0.252659
0.280387
0.311107
0.180245
0.0957672
0.0811368
0.0762149
0.074557
0.0746332
0.0759372
0.0782923
0.0816661
0.0861063
0.0917148
0.0986353
0.107044
0.117144
0.129151
0.143288
0.15975
0.17868
0.200197
0.224372
0.251276
0.281049
0.314025
0.176199
0.0945923
0.0801548
0.0750175
0.0730239
0.0727154
0.0736077
0.0755317
0.0784598
0.0824469
0.0876071
0.094103
0.102138
0.111951
0.123803
0.137967
0.154706
0.174264
0.196781
0.22237
0.251093
0.283044
0.31844
0.173791
0.0942816
0.0798724
0.0744441
0.072077
0.0713702
0.0718544
0.0733639
0.0758722
0.0794384
0.0841863
0.0902952
0.0979948
0.107559
0.119295
0.133531
0.150588
0.170762
0.194294
0.221357
0.251988
0.286257
0.32427
0.173009
0.0948224
0.080269
0.0744676
0.0716837
0.0705601
0.0706353
0.0717418
0.0738506
0.0770213
0.0813845
0.087134
0.0945234
0.103861
0.115501
0.129827
0.147226
0.168058
0.192619
0.221125
0.253722
0.290432
0.331272
0.173792
0.0961769
0.0813048
0.0750453
0.0717991
0.0702377
0.0699001
0.0706112
0.0723352
0.075129
0.0791261
0.0845322
0.0916217
0.100736
0.112275
0.126679
0.144407
0.165889
0.19149
0.221475
0.256005
0.295171
0.33903
0.176053
0.0982879
0.0829235
0.0761214
0.0723678
0.070348
0.0695926
0.0699137
0.0712638
0.0736929
0.0773341
0.0824005
0.0891846
0.0980571
0.109461
0.123898
0.141894
0.163962
0.190546
0.221977
0.258461
0.3001
0.346944
0.179694
0.101085
0.085057
0.0776308
0.073328
0.0708312
0.0696544
0.0695903
0.070575
0.072647
0.0759348
0.0806547
0.0871122
0.0957032
0.106911
0.121291
0.139445
0.16197
0.1894
0.222151
0.260495
0.304579
0.354459
0.184611
0.104488
0.0876303
0.0795033
0.0746143
0.0716263
0.0700272
0.0695842
0.0702114
0.0719314
0.0748629
0.0792205
0.0853169
0.0935669
0.104487
0.118683
0.136829
0.159608
0.187657
0.221491
0.261476
0.307833
0.360668
0.190682
0.108416
0.0905672
0.0816682
0.0761619
0.072674
0.0706562
0.0698433
0.0701225
0.0714949
0.0740647
0.0780384
0.0837294
0.091563
0.10208
0.115929
0.133847
0.156606
0.184948
0.219508
0.260767
0.309055
0.36457
0.197777
0.112792
0.0937959
0.084059
0.0779103
0.0739195
0.0714917
0.0703223
0.070266
0.0712974
0.0735002
0.0770668
0.0823031
0.0896353
0.0996165
0.112926
0.130352
0.152748
0.180965
0.215767
0.257775
0.307456
0.365142
0.205783
0.117551
0.0972549
0.0866168
0.0798056
0.0753147
0.0724914
0.0709844
0.0706098
0.0713108
0.073145
0.0762837
0.0810169
0.0877611
0.0970681
0.10963
0.126269
0.147907
0.175495
0.209936
0.252006
0.302337
0.361424
0.214661
0.122658
0.100899
0.0892937
0.0818027
0.0768201
0.0736221
0.0718024
0.071133
0.0715202
0.0729903
0.0756873
0.0798768
0.0859539
0.0944536
0.106061
0.12161
0.142065
0.168462
0.201836
0.243131
0.293163
0.352616
0.224529
0.128122
0.104703
0.0920545
0.0838668
0.0784062
0.0748613
0.0727609
0.071827
0.0719245
0.073044
0.0752961
0.0789146
0.084262
0.0918412
0.102308
0.116482
0.135334
0.159958
0.191497
0.23106
0.279662
0.33819
0.235735
0.13402
0.10867
0.0948779
0.0859737
0.0800543
0.0761982
0.0738576
0.0726975
0.0725381
0.0733306
0.0751483
0.0781864
0.082766
0.0893438
0.098526
0.111084
0.127962
0.150262
0.179196
0.216012
0.261917
0.318016
0.248941
0.140519
0.112834
0.0977544
0.0881079
0.0817569
0.0776367
0.0751063
0.0737676
0.0733929
0.0738927
0.0753009
0.0777703
0.0815736
0.0871102
0.0949192
0.105698
0.120319
0.139839
0.165475
0.198561
0.240461
0.292491
0.265268
0.14792
0.117262
0.10068
0.0902584
0.0835174
0.0791968
0.0765412
0.0750818
0.0745423
0.0747938
0.0758314
0.0777646
0.0808142
0.0853156
0.0917287
0.100655
0.112861
0.129298
0.151117
0.179643
0.216328
0.262654
0.28663
0.156734
0.122043
0.103633
0.0924065
0.0853473
0.0809188
0.0782223
0.0767125
0.0760673
0.0761231
0.0768406
0.0782883
0.0806354
0.0841514
0.0892111
0.0963089
0.10608
0.119329
0.137059
0.160486
0.191027
0.230229
0.316611
0.167816
0.127229
0.10652
0.0945019
0.0872629
0.0828679
0.0802438
0.0787688
0.0780848
0.0780033
0.078459
0.0794853
0.0812039
0.0838201
0.0876249
0.0930037
0.100452
0.110602
0.124259
0.142432
0.166363
0.197507
0.363059
0.182503
0.132612
0.109051
0.0964241
0.0892848
0.0851459
0.0827467
0.0814086
0.0807585
0.0806008
0.0808564
0.0815331
0.0827113
0.084538
0.087226
0.0910575
0.0963943
0.103696
0.113547
0.126701
0.144113
0.166971
0.447319
0.202276
0.137015
0.110496
0.0979489
0.0914582
0.0879164
0.0859401
0.0848549
0.0843137
0.0841393
0.0842556
0.0846557
0.0853874
0.0865469
0.0882765
0.090766
0.0942569
0.0990517
0.105532
0.114186
0.125647
0.140723
0.655246
0.224861
0.136441
0.109427
0.0988173
0.0939365
0.091459
0.0901332
0.0894175
0.0890542
0.088917
0.0889502
0.0891436
0.089521
0.0901356
0.0910681
0.0924267
0.094348
0.0970006
0.100592
0.105382
0.111704
0.119987
1.60457
0.216201
0.121107
0.10417
0.0991654
0.0971901
0.0962596
0.0957773
0.0955189
0.0953851
0.0953287
0.0953288
0.0953803
0.0954902
0.0956752
0.0959616
0.096385
0.0969898
0.0978299
0.0989691
0.100484
0.102466
0.105032
0.886504
0.726318
0.646862
0.649791
0.33973
0.350066
0.350923
0.353522
0.27386
0.28378
0.292382
0.301832
0.256583
0.26428
0.272508
0.282319
0.253918
0.260856
0.269021
0.278871
0.254877
0.264485
0.27401
0.28541
0.2671
0.269319
0.27588
0.286104
0.287162
0.293851
0.301847
0.310919
0.299729
0.307556
0.31615
0.325637
0.309904
0.318204
0.327122
0.336782
0.317875
0.326747
0.336318
0.346745
0.323726
0.333412
0.34397
0.355624
0.327522
0.33821
0.349977
0.36312
0.329583
0.341371
0.354433
0.36913
0.330439
0.343341
0.357673
0.373829
0.330702
0.344683
0.360189
0.377615
0.330972
0.345974
0.362529
0.381005
0.331774
0.347742
0.365229
0.384557
0.333538
0.350436
0.368774
0.388811
0.336594
0.35442
0.373576
0.394253
0.341171
0.359965
0.379967
0.401297
0.347382
0.367232
0.388172
0.410253
0.355202
0.376241
0.398274
0.421285
0.364433
0.386834
0.410166
0.434361
0.374677
0.398632
0.423498
0.449162
0.385322
0.411026
0.437669
0.465097
0.395624
0.423208
0.451818
0.481281
0.404717
0.434294
0.465023
0.496698
0.411422
0.442991
0.475901
0.509941
0.414497
0.4479
0.482882
0.51924
0.412725
0.447628
0.484377
0.522792
0.405035
0.440906
0.478905
0.518883
0.390623
0.426737
0.465245
0.506041
0.369108
0.404549
0.442612
0.483236
0.340688
0.374388
0.410867
0.450111
0.306308
0.337106
0.370733
0.407223
0.267779
0.294526
0.324008
0.3563
0.227741
0.24948
0.273674
0.300429
0.189327
0.205521
0.223686
0.243943
0.155454
0.166155
0.178203
0.191693
0.127999
0.133801
0.140315
0.147586
0.107462
0.109201
0.111128
0.113247
0.433576
0.640902
3.3719
13.516
9.22447
9.25797
9.10573
8.75449
9.72887
9.05706
7.00795
4.55003
2.40308
0.675398
0.65802
0.729348
0.831311
0.967806
1.76289
0.356213
0.467593
3.34285
14.1435
8.62356
8.24141
8.50614
8.91555
9.64816
9.1958
7.20998
4.58397
1.93391
0.772645
0.70751
0.759172
0.841474
0.992265
1.93087
0.320507
0.376601
0.986044
9.35924
11.0393
9.05535
8.6333
8.98161
9.69386
9.48382
7.58614
4.5758
1.01898
0.843409
0.809602
0.833526
0.883456
1.02217
2.01977
0.30274
0.346055
0.460615
1.50934
3.71337
9.0258
9.68892
10.2716
10.5833
9.78397
7.73642
3.98448
1.1598
0.999138
0.962064
0.939362
0.933626
1.03441
2.02148
0.298252
0.334971
0.39188
0.511228
0.765254
1.10828
4.66043
7.19902
7.60218
6.32645
4.66372
1.40697
1.27255
1.21779
1.16338
1.06394
0.970395
1.01095
1.92542
0.304291
0.330391
0.370003
0.421037
0.473695
0.512636
0.570403
0.656263
1.93503
1.86133
1.32861
1.4107
1.49792
1.53502
1.41612
1.1724
0.965327
0.939178
1.71659
0.305021
0.338557
0.373166
0.405529
0.439758
0.467258
0.4837
0.486236
0.531789
0.828292
1.20097
1.60202
1.96043
2.01172
1.63655
1.19953
0.91582
0.826943
1.37213
0.329313
0.34898
0.379184
0.411837
0.434739
0.454146
0.467463
0.475908
0.535338
0.801097
1.42745
2.26967
2.73072
2.36807
1.64199
1.15164
0.847422
0.71698
0.962726
0.34318
0.367541
0.400265
0.414983
0.438391
0.455926
0.462771
0.478448
0.583864
1.01225
1.94375
2.90339
2.87836
2.14574
1.47995
1.05144
0.790255
0.693161
0.65653
0.35442
0.382141
0.416344
0.453285
0.496643
0.468717
0.469148
0.506746
0.704967
1.34131
2.26463
2.5735
2.16792
1.62952
1.04857
0.750051
0.712897
0.732651
0.549364
0.365986
0.39818
0.441547
0.501829
0.583318
0.652462
0.710341
0.612559
0.922652
1.66342
2.13553
2.15971
1.91654
1.36466
0.70765
0.634272
0.649129
0.704984
0.531936
0.377473
0.416196
0.471742
0.554833
0.678657
0.847254
1.06594
1.29572
1.64507
1.90141
2.03609
2.06998
1.90246
1.086
0.637504
0.592352
0.616563
0.659231
0.54989
0.388081
0.434298
0.50307
0.609462
0.774022
1.01361
1.31998
1.58469
1.761
1.86118
2.01221
2.0283
1.63658
1.14728
0.835671
0.63635
0.624162
0.640729
0.539752
0.397241
0.450641
0.531402
0.657879
0.855353
1.14475
1.48164
1.71764
1.78931
1.88376
2.01327
1.91909
1.6194
1.6875
1.6995
1.14569
0.706809
0.627691
0.559187
0.404769
0.464025
0.553597
0.693443
0.91096
1.22078
1.56358
1.78765
1.83063
1.91879
2.04062
1.92031
1.8599
2.19227
2.32147
1.6978
0.971564
0.726352
0.604308
0.410847
0.474061
0.568224
0.712773
0.933471
1.23857
1.57135
1.79828
1.84894
1.89824
1.99263
2.00349
2.19121
2.70327
2.84284
2.02978
1.02254
0.873695
0.669188
0.415938
0.481142
0.575771
0.717004
0.926112
1.20916
1.51871
1.74782
1.81994
1.84573
1.93852
2.09374
2.46277
2.98434
2.86465
1.86579
0.911645
0.954139
0.672697
0.420673
0.486223
0.578108
0.710374
0.898837
1.14941
1.42584
1.64782
1.74394
1.77565
1.87895
2.1252
2.57811
3.0385
2.84708
1.52746
0.749029
0.961316
0.722568
0.425743
0.490522
0.577693
0.698104
0.863063
1.07593
1.31365
1.51858
1.63199
1.68569
1.80286
2.08433
2.56313
3.03255
2.97948
0.881096
0.722197
0.960344
0.827904
0.431819
0.495283
0.576916
0.684678
0.826292
1.00347
1.20103
1.38045
1.50048
1.57909
1.71527
2.01194
2.50372
3.08149
3.28902
0.83717
0.705403
0.936305
0.954486
0.439506
0.501637
0.577842
0.673635
0.793989
0.939497
1.10004
1.25132
1.36819
1.46504
1.62048
1.93608
2.4879
3.31624
3.82086
1.04709
0.693423
0.899062
1.05406
0.449294
0.510522
0.582106
0.667569
0.769843
0.888795
1.01775
1.14231
1.24978
1.35571
1.52674
1.8696
2.52232
3.64092
4.13418
0.990038
0.634303
0.850701
1.101
0.461511
0.522624
0.590881
0.668212
0.756049
0.853822
0.957259
1.05863
1.15393
1.2611
1.44038
1.8029
2.52409
3.74225
3.30649
0.735598
0.560631
0.740346
1.09868
0.476248
0.538309
0.604854
0.67653
0.753632
0.835312
0.918964
1.00126
1.0839
1.1867
1.36506
1.72609
2.44236
3.59289
1.95659
0.653928
0.526262
0.679848
1.07307
0.493294
0.55755
0.624194
0.692797
0.762728
0.832871
0.901707
0.968743
1.03921
1.13398
1.30432
1.64968
2.32762
3.3797
2.05735
0.635905
0.51367
0.675496
1.05844
0.512083
0.579856
0.648495
0.716625
0.782759
0.845409
0.90363
0.958622
1.0177
1.10226
1.2612
1.59188
2.25717
3.29442
2.84832
0.680794
0.520083
0.713637
1.03414
0.531666
0.604219
0.676731
0.746948
0.812504
0.871354
0.922663
0.968467
1.01714
1.09022
1.23545
1.55197
2.22081
3.33864
2.893
0.69976
0.546493
0.775193
0.995295
0.550712
0.629094
0.707219
0.781978
0.850059
0.908641
0.95658
0.996084
1.03579
1.09666
1.22395
1.51126
2.12596
3.13264
2.26355
0.59918
0.580538
0.838991
0.977992
0.567847
0.652429
0.737643
0.81919
0.892752
0.954521
1.00269
1.0391
1.072
1.12083
1.22567
1.46426
1.96432
2.77774
1.05279
0.559963
0.604407
0.897523
0.992335
0.581026
0.672324
0.765131
0.855356
0.937098
1.00536
1.05736
1.09422
1.12323
1.16168
1.24305
1.4259
1.79745
2.41552
0.880926
0.559881
0.652434
0.972084
1.07167
0.588092
0.686065
0.786927
0.886627
0.97886
1.05661
1.11575
1.15666
1.18503
1.21612
1.2774
1.41269
1.68775
2.14565
1.33307
0.615011
0.731925
1.05275
1.14814
0.586927
0.690844
0.799604
0.90903
1.01325
1.10295
1.17232
1.22014
1.25101
1.27821
1.32449
1.42359
1.6302
1.98219
1.86471
0.903742
0.845927
1.12922
1.20406
0.575634
0.68398
0.799624
0.918429
1.035
1.13862
1.2212
1.27921
1.31582
1.34203
1.37683
1.44483
1.59058
1.86343
1.97647
1.09811
0.960395
1.22986
1.19678
0.552758
0.663118
0.783692
0.910478
1.03857
1.15722
1.25541
1.3273
1.37339
1.40169
1.42666
1.46502
1.54961
1.72616
1.92314
1.26018
1.08102
1.38798
1.35761
0.517579
0.626767
0.749095
0.880992
1.01841
1.15169
1.26692
1.35636
1.4167
1.45081
1.46899
1.48277
1.51633
1.60822
1.78385
1.47531
1.24773
1.59527
1.75774
0.470361
0.574518
0.694171
0.826758
0.969332
1.11464
1.24644
1.3553
1.4348
1.48187
1.5005
1.50319
1.50726
1.54033
1.64826
1.68015
1.56054
1.84226
2.11596
0.412684
0.507443
0.618945
0.74631
0.887734
1.03937
1.18446
1.3122
1.41396
1.48355
1.51881
1.52757
1.52171
1.5241
1.58625
1.79774
2.09252
2.15162
2.42664
0.347719
0.428651
0.525909
0.641022
0.77323
0.921534
1.07309
1.21533
1.33881
1.43615
1.50282
1.53785
1.54612
1.54501
1.59151
1.82445
2.4573
2.5184
2.68414
0.28028
0.343579
0.421235
0.516406
0.630086
0.763166
0.909334
1.0559
1.19396
1.31605
1.41706
1.49366
1.54427
1.57799
1.65486
1.86055
2.76457
3.40991
2.76927
0.216235
0.259606
0.314119
0.383958
0.471822
0.57858
0.703513
0.837525
0.973504
1.10476
1.22681
1.33726
1.43523
1.52732
1.68484
1.9839
3.82722
4.68045
3.60023
0.160927
0.184688
0.216206
0.26378
0.327397
0.404477
0.496175
0.599398
0.709554
0.820359
0.9255
1.01958
1.09746
1.16764
1.33194
1.95144
4.45707
6.32631
4.97568
0.11712
0.12415
0.13674
0.185601
0.238958
0.297355
0.362423
0.434794
0.511528
0.585207
0.642646
0.661934
0.605304
0.416722
0.493823
0.943963
4.78804
4.64703
5.32632
)
;

boundaryField
{
    leftWall
    {
        lowReCorrection 0;
        blending        stepwise;
        n               2;
        type            epsilonWallFunction;
        value           nonuniform List<scalar> 
50
(
0.0259901
0.0319556
0.0385277
0.0396575
0.0407102
0.0415306
0.0412587
0.0394914
0.0371137
0.0428311
0.161971
0.260018
0.270865
0.265222
0.260029
0.257193
0.25597
0.254491
0.252299
0.249389
0.244414
0.23747
0.229049
0.219782
0.21031
0.201207
0.192942
0.185873
0.180245
0.176199
0.173791
0.173009
0.173792
0.176053
0.179694
0.184611
0.190682
0.197777
0.205783
0.214661
0.224529
0.235735
0.248941
0.265268
0.28663
0.316611
0.363059
0.447319
0.655246
1.60457
)
;
    }
    rightWall
    {
        lowReCorrection 0;
        blending        stepwise;
        n               2;
        type            epsilonWallFunction;
        value           nonuniform List<scalar> 
50
(
1.00984
1.03233
1.20962
1.31398
1.39635
1.47933
1.56947
1.6595
1.76289
1.93087
2.01977
2.02148
1.92542
1.71659
1.37213
0.962726
0.65653
0.549364
0.531936
0.54989
0.539752
0.559187
0.604308
0.669188
0.672697
0.722568
0.827904
0.954486
1.05406
1.101
1.09868
1.07307
1.05844
1.03414
0.995295
0.977992
0.992335
1.07167
1.14814
1.20406
1.19678
1.35761
1.75774
2.11596
2.42664
2.68414
2.76927
3.60023
4.97568
5.32632
)
;
    }
    lowerWall
    {
        lowReCorrection 0;
        blending        stepwise;
        n               2;
        type            epsilonWallFunction;
        value           nonuniform List<scalar> 
62
(
0.0259901
0.0722932
0.123309
0.168645
0.202199
0.22811
0.251646
0.273196
0.29321
0.31198
0.3294
0.345053
0.358342
0.368188
0.372135
0.369879
0.357314
0.331585
0.292976
0.243898
0.202465
0.155551
0.13039
0.13039
0.142791
0.20484
0.276845
0.347488
0.420284
0.506722
0.65282
0.886504
0.726318
0.646862
0.649791
0.313064
0.333471
0.424414
0.464321
0.511432
0.520584
0.551562
0.665186
0.313064
1.0225
1.76776
4.77564
4.15664
4.28794
4.51439
4.74785
5.01533
5.3934
5.96912
6.68889
7.41351
7.99858
8.30863
7.93167
6.30405
3.89671
1.00984
)
;
    }
    atmosphere
    {
        type            inletOutlet;
        inletValue      uniform 0.1;
        value           nonuniform List<scalar> 
46
(
0.1
0.1
0.1
0.1
0.1
0.1
0.1
0.1
0.1
0.1
0.1
0.1
0.1
0.1
0.1
0.1
0.1
0.1
0.1
0.1
0.1
0.1
0.1
0.1
0.1
0.1
0.1
0.1
0.1
0.1
0.185601
0.238958
0.297355
0.362423
0.434794
0.511528
0.585207
0.642646
0.661934
0.605304
0.1
0.1
0.1
0.1
0.1
5.32632
)
;
    }
    defaultFaces
    {
        type            empty;
    }
}


// ************************************************************************* //
