/*--------------------------------*- C++ -*----------------------------------*\
| =========                 |                                                 |
| \\      /  F ield         | OpenFOAM: The Open Source CFD Toolbox           |
|  \\    /   O peration     | Version:  v2012                                 |
|   \\  /    A nd           | Website:  www.openfoam.com                      |
|    \\/     M anipulation  |                                                 |
\*---------------------------------------------------------------------------*/
FoamFile
{
    version     2.0;
    format      ascii;
    class       volScalarField;
    location    "0.6";
    object      k;
}
// * * * * * * * * * * * * * * * * * * * * * * * * * * * * * * * * * * * * * //

dimensions      [0 2 -2 0 0 0 0];


internalField   nonuniform List<scalar> 
2268
(
0.00410486
0.00661208
0.00942826
0.0116123
0.0131019
0.0141924
0.0151453
0.0159965
0.016768
0.0174768
0.018123
0.0186948
0.0191742
0.0195266
0.019669
0.0195914
0.0191447
0.0182115
0.0167643
0.0148332
0.0131054
0.0109952
0.00977798
0.00633078
0.0128991
0.0187224
0.0231438
0.0265044
0.0290936
0.0312191
0.0330961
0.0348092
0.0363935
0.0378516
0.039167
0.0403144
0.0412466
0.0418616
0.0419679
0.041381
0.0399716
0.0377599
0.0347312
0.0313661
0.0259683
0.017115
0.00717146
0.0156521
0.0221587
0.0274441
0.0316181
0.0349806
0.0378498
0.040404
0.042735
0.0448857
0.0468653
0.0486616
0.0502524
0.051593
0.0525897
0.0530671
0.0528379
0.0517403
0.049688
0.0465973
0.0425782
0.036405
0.0217528
0.00730934
0.0169182
0.0236591
0.0293118
0.0340367
0.0380428
0.0415417
0.0446754
0.0475303
0.0501553
0.0525682
0.0547647
0.0567295
0.0584251
0.0597695
0.0605997
0.060752
0.0600584
0.0583631
0.0554744
0.0511587
0.0444727
0.0265829
0.00743028
0.0171741
0.0239443
0.0298533
0.0350654
0.0396623
0.0437513
0.0474284
0.0507698
0.0538301
0.0566378
0.0591989
0.0615071
0.0635332
0.0652029
0.0663689
0.0668888
0.0666039
0.065327
0.0627836
0.0585077
0.0513749
0.0309281
0.00752393
0.0167688
0.02346
0.0295847
0.0352609
0.0404236
0.0450746
0.0492644
0.0530606
0.0565252
0.0596989
0.0625992
0.0652296
0.0675692
0.0695486
0.0710361
0.0719096
0.0720282
0.0712004
0.0691031
0.0651062
0.0577228
0.0350929
0.00748629
0.0159892
0.0224932
0.0288442
0.0349889
0.04069
0.0458586
0.0505144
0.0547226
0.0585548
0.0620634
0.0652773
0.0682098
0.0708489
0.0731237
0.0749213
0.0761389
0.0766578
0.0763021
0.0747339
0.0712251
0.0639551
0.0397762
0.00726799
0.0149445
0.0213025
0.0279524
0.0345581
0.0407326
0.0463387
0.0513873
0.0559481
0.0601009
0.0639078
0.0674073
0.0706205
0.0735426
0.076102
0.0782007
0.0797563
0.080674
0.080809
0.0798407
0.0770265
0.0705589
0.0471717
0.0173329
0.0403331
0.0665661
0.104117
0.0972887
0.0999849
0.103573
0.107192
0.11138
0.117391
0.125983
0.135872
0.145309
0.152652
0.1562
0.150752
0.128749
0.0931897
0.0472439
0.0324011
0.0893456
0.197506
0.192499
0.150565
0.112669
0.11522
0.145451
0.166223
0.183769
0.199144
0.217758
0.238514
0.255828
0.264176
0.252891
0.213321
0.15504
0.0681451
0.0381303
0.153082
0.279647
0.246721
0.213107
0.192917
0.400705
0.388963
0.304228
0.211458
0.21817
0.248192
0.277859
0.291308
0.294385
0.276152
0.231332
0.17072
0.0759513
0.0404092
0.158845
0.43381
0.342491
0.296592
0.399376
0.518841
0.546348
0.533374
0.480997
0.394604
0.311157
0.287264
0.293834
0.288747
0.269262
0.22881
0.173483
0.080369
0.0431382
0.0937899
0.473192
0.457755
0.363689
0.499443
0.590856
0.626257
0.627956
0.580397
0.478187
0.358938
0.29052
0.276982
0.266935
0.250682
0.219847
0.17206
0.0837753
0.043508
0.0894969
0.250489
0.525943
0.385103
0.564294
0.63124
0.649638
0.663594
0.628904
0.529266
0.395729
0.286798
0.24795
0.240146
0.230387
0.210799
0.170567
0.0871682
0.045425
0.0902607
0.176896
0.505615
0.397037
0.607925
0.642722
0.636534
0.667372
0.648585
0.557749
0.425582
0.29895
0.215237
0.213273
0.21313
0.203817
0.170321
0.0906712
0.0517939
0.0956013
0.156599
0.474368
0.408607
0.569231
0.619567
0.602947
0.654993
0.652198
0.571694
0.44461
0.316231
0.197517
0.195345
0.201123
0.199127
0.171425
0.0941015
0.0069722
0.0132821
0.0197532
0.0269144
0.0340728
0.0407815
0.0468862
0.0523956
0.0573829
0.061935
0.0661287
0.0700264
0.0736527
0.0769916
0.0799815
0.0825379
0.0846139
0.0861482
0.0870642
0.0871052
0.0856143
0.0814315
0.0697813
0.00768914
0.0134488
0.0200111
0.0276232
0.0347285
0.0414795
0.0477367
0.0534609
0.0587179
0.0635893
0.0681259
0.0723737
0.07631
0.0799792
0.0833795
0.0864804
0.0892269
0.0915063
0.0933752
0.0946544
0.0947689
0.0934175
0.0902917
0.0187677
0.0274946
0.0315636
0.0337841
0.0375514
0.0428648
0.0484717
0.0538775
0.0589642
0.0637405
0.0683367
0.0730609
0.077461
0.0816041
0.0855501
0.0891674
0.0922783
0.0950466
0.0977283
0.0999881
0.101179
0.101386
0.100592
0.02554
0.0442714
0.0535192
0.058815
0.063107
0.0670877
0.0709367
0.0747009
0.078345
0.0816624
0.0832185
0.0787496
0.0784988
0.0819375
0.0858288
0.0897788
0.093447
0.0972361
0.100734
0.103265
0.104811
0.10579
0.105939
0.0262468
0.050336
0.0626209
0.0704589
0.0762456
0.0809304
0.0849644
0.0886196
0.0920385
0.0951264
0.0973487
0.0980892
0.0996493
0.101839
0.10246
0.0957797
0.0946012
0.0975593
0.101125
0.10398
0.106253
0.107896
0.10841
0.0259036
0.0526351
0.0667085
0.0761713
0.0833287
0.0891087
0.0940176
0.0983752
0.102364
0.105964
0.108994
0.111337
0.113577
0.115881
0.117412
0.11723
0.117387
0.117152
0.112526
0.106872
0.106965
0.108181
0.10853
0.0255812
0.053477
0.068434
0.0789421
0.0871633
0.0939695
0.0998463
0.105103
0.109927
0.114362
0.118282
0.121664
0.124684
0.127482
0.12984
0.131508
0.132901
0.133975
0.133821
0.133346
0.133725
0.133545
0.130717
0.0254098
0.0536683
0.0690468
0.080147
0.0890741
0.0966547
0.103339
0.109411
0.115043
0.120304
0.125154
0.129514
0.13346
0.137082
0.140342
0.143144
0.14556
0.147632
0.149259
0.150777
0.152491
0.15367
0.152706
0.0253361
0.0535618
0.0690626
0.0804263
0.0897496
0.0978312
0.105092
0.111791
0.118084
0.124048
0.129682
0.134944
0.139826
0.144355
0.148531
0.152313
0.155699
0.158719
0.161387
0.163832
0.166078
0.167837
0.16868
0.0252423
0.0532695
0.0686764
0.0800755
0.0895588
0.0979077
0.105523
0.112645
0.119419
0.125921
0.132167
0.138139
0.143816
0.149184
0.154218
0.158874
0.163126
0.166984
0.170486
0.173684
0.176588
0.179141
0.181281
0.0250985
0.0527824
0.0679537
0.0792387
0.0887149
0.0971514
0.104936
0.112298
0.119376
0.126245
0.132931
0.139426
0.145704
0.151734
0.157474
0.162871
0.167886
0.172512
0.17677
0.180697
0.184331
0.187717
0.190918
0.0249063
0.0520733
0.0669231
0.0780069
0.0873633
0.0957565
0.103566
0.111016
0.118242
0.125321
0.132284
0.13913
0.145834
0.152357
0.158648
0.16465
0.170318
0.17563
0.180593
0.185238
0.189626
0.193847
0.198026
0.0245753
0.0511693
0.065657
0.0764634
0.0856234
0.0938818
0.101608
0.109025
0.11627
0.123423
0.130521
0.137568
0.144545
0.151412
0.158116
0.164602
0.170818
0.176735
0.182348
0.187687
0.192818
0.197856
0.202969
0.024109
0.0500831
0.0641975
0.0747106
0.0836189
0.0916671
0.0992332
0.106526
0.113687
0.120802
0.127916
0.135041
0.142163
0.149248
0.156248
0.163109
0.16978
0.176226
0.182435
0.188429
0.194277
0.200104
0.206112
0.0235371
0.0488601
0.0626004
0.0728159
0.0814574
0.0892571
0.0965923
0.103694
0.110694
0.117686
0.124722
0.131824
0.138988
0.146189
0.153387
0.160533
0.167578
0.174485
0.181236
0.187847
0.194381
0.20097
0.207839
0.0228994
0.0475592
0.0609327
0.0708536
0.0792225
0.0867589
0.093837
0.100688
0.107469
0.114274
0.121162
0.128165
0.135292
0.142528
0.149844
0.1572
0.164553
0.171864
0.179111
0.186303
0.193497
0.200825
0.208523
0.022238
0.0462439
0.0592644
0.0688987
0.076996
0.0842624
0.0910704
0.0976533
0.104171
0.110738
0.117429
0.124278
0.131308
0.138518
0.145892
0.1534
0.161005
0.168672
0.176377
0.184122
0.191955
0.200003
0.208502
0.0215927
0.0449756
0.0576628
0.0670219
0.0748524
0.0818485
0.0883811
0.0946864
0.10093
0.107232
0.113681
0.120339
0.127231
0.134371
0.141757
0.149372
0.157188
0.165175
0.173308
0.181583
0.190039
0.198791
0.208064
0.0209981
0.0438102
0.0561889
0.0652865
0.0728573
0.079586
0.0858431
0.0918681
0.0978317
0.103862
0.110057
0.11649
0.123214
0.130255
0.137622
0.145311
0.153306
0.161584
0.170122
0.17891
0.187978
0.197422
0.207443
0.0204824
0.0427947
0.0548945
0.0637456
0.0710651
0.0775311
0.0835153
0.089261
0.0949448
0.100703
0.106641
0.112845
0.11938
0.126294
0.13362
0.14136
0.149512
0.158061
0.166987
0.176277
0.185947
0.196074
0.206823
0.0200667
0.0419661
0.0538206
0.0624411
0.0695178
0.0757265
0.0814415
0.0869109
0.0923174
0.0978044
0.103488
0.109463
0.115809
0.122588
0.129847
0.137618
0.14591
0.154715
0.164016
0.173799
0.184068
0.194872
0.206339
0.0197645
0.0413501
0.0529958
0.0614026
0.0682452
0.0742015
0.079651
0.0848475
0.08998
0.0951993
0.10063
0.106379
0.112537
0.11918
0.12637
0.134154
0.142562
0.151609
0.161274
0.171543
0.182407
0.193891
0.206076
0.0195828
0.0409616
0.0524371
0.0606473
0.067264
0.0729726
0.0781599
0.0830862
0.0879475
0.0929018
0.0980827
0.103606
0.109575
0.11608
0.123198
0.130993
0.139507
0.148767
0.158776
0.169524
0.18098
0.193147
0.206064
0.0195221
0.0408048
0.0521494
0.0601804
0.0665795
0.0720446
0.0769721
0.0816302
0.0862218
0.0909121
0.0958429
0.10114
0.106918
0.113279
0.120317
0.128111
0.136722
0.146186
0.156517
0.167708
0.179745
0.192598
0.206266
0.0195784
0.0408753
0.0521278
0.0599964
0.066186
0.0714117
0.0760815
0.0804723
0.0847941
0.0892193
0.0938975
0.0989634
0.104542
0.110749
0.117692
0.125467
0.134151
0.143798
0.154432
0.166048
0.178625
0.19214
0.206579
0.0197447
0.0411612
0.0523583
0.060081
0.0660692
0.0710596
0.0754738
0.0795976
0.0836483
0.0878052
0.092225
0.0970505
0.102416
0.10845
0.115273
0.122999
0.131722
0.141512
0.152408
0.164414
0.177507
0.191654
0.206824
0.0200125
0.0416454
0.0528207
0.060413
0.0662081
0.070968
0.0751289
0.078986
0.0827636
0.0866471
0.0907996
0.0953713
0.100505
0.106339
0.113008
0.12064
0.129348
0.139222
0.150316
0.162648
0.1762
0.190938
0.206818
0.0203718
0.0423071
0.0534905
0.0609669
0.0665776
0.0711127
0.0750237
0.078615
0.0821172
0.0857211
0.0895953
0.0938959
0.0987725
0.104372
0.110841
0.11832
0.126943
0.136817
0.148018
0.16058
0.174499
0.189747
0.206281
0.0208116
0.0431243
0.0543417
0.0617159
0.0671515
0.0714686
0.0751344
0.0784619
0.0816871
0.0850051
0.0885887
0.0925983
0.0971885
0.102513
0.108726
0.115982
0.124429
0.134197
0.145384
0.158045
0.172197
0.187829
0.204909
0.0213199
0.0440757
0.0553502
0.062635
0.067905
0.0720121
0.0754389
0.0785063
0.0814543
0.0844812
0.0877621
0.0914598
0.095732
0.100736
0.106631
0.113582
0.12175
0.131285
0.142308
0.154902
0.169111
0.184949
0.202405
0.0218864
0.0451446
0.056497
0.0637042
0.0688181
0.0727238
0.0759192
0.0787318
0.0814048
0.0841372
0.0871049
0.0904712
0.094394
0.099031
0.104544
0.111102
0.118877
0.128035
0.138723
0.151053
0.165101
0.180912
0.198511
0.0225065
0.0463233
0.0577725
0.0649124
0.0698786
0.0735913
0.0765634
0.0791284
0.0815306
0.0839683
0.0866157
0.0896343
0.0931796
0.0974068
0.102475
0.108554
0.115819
0.12445
0.134615
0.146457
0.16009
0.175595
0.193037
0.0231864
0.0476191
0.0591819
0.0662613
0.0710855
0.0746117
0.0773684
0.0796937
0.0818316
0.0839777
0.0863023
0.0889622
0.0921082
0.0958893
0.100459
0.105979
0.112626
0.120582
0.130034
0.141152
0.154088
0.168967
0.185895
0.0239475
0.0490608
0.0607507
0.067771
0.0724531
0.0757951
0.0783416
0.0804347
0.0823166
0.0841777
0.086182
0.0884795
0.0912127
0.0945221
0.0985506
0.10345
0.109385
0.116537
0.125097
0.135261
0.14721
0.161116
0.17713
0.0248304
0.0507081
0.0625339
0.0694855
0.0740152
0.0771674
0.0795038
0.0813699
0.0830041
0.0845899
0.086282
0.0882208
0.0905385
0.0933637
0.0968259
0.101061
0.106219
0.112466
0.11999
0.128992
0.139683
0.152269
0.166949
0.0259025
0.0526672
0.0646277
0.0714815
0.07583
0.078773
0.0808905
0.08253
0.0839239
0.0852458
0.0866389
0.0882309
0.0901409
0.0924839
0.0953735
0.0989272
0.103273
0.108556
0.114945
0.122635
0.131842
0.142798
0.15574
0.027275
0.0551179
0.0671873
0.0738758
0.0779829
0.0806761
0.0825531
0.0839594
0.0851177
0.0861881
0.0872993
0.0885634
0.0900844
0.0919613
0.0942906
0.0971701
0.100704
0.105009
0.110226
0.116524
0.124105
0.133204
0.144073
0.029148
0.0583649
0.070449
0.0768294
0.0805842
0.0829574
0.0845563
0.0857152
0.0866395
0.0874713
0.0883208
0.0892821
0.0904416
0.0918809
0.0936789
0.0959134
0.0986648
0.102022
0.10609
0.111001
0.116922
0.124059
0.132654
0.0319406
0.0629285
0.0747461
0.0805351
0.0837536
0.0857037
0.0869733
0.0878653
0.0885563
0.0891632
0.0897738
0.0904619
0.0912944
0.0923344
0.0936429
0.0952787
0.0973007
0.0997712
0.102762
0.106364
0.110697
0.115916
0.122217
0.0367249
0.0697018
0.0804796
0.0851622
0.0875836
0.0889888
0.0898772
0.0904865
0.0909484
0.0913473
0.0917449
0.0921925
0.0927368
0.0934221
0.0942911
0.0953852
0.0967444
0.0984089
0.100423
0.10284
0.105733
0.109199
0.113368
0.0474156
0.0801412
0.0879062
0.0907193
0.0920794
0.0928513
0.0933349
0.0936647
0.0939134
0.0941275
0.0943413
0.0945835
0.0948807
0.0952585
0.0957421
0.096356
0.0971237
0.0980677
0.0992111
0.10058
0.10221
0.104147
0.106456
0.0864281
0.0953165
0.0963709
0.0968299
0.0971097
0.0972923
0.0974162
0.0975049
0.0975744
0.0976361
0.0976994
0.0977727
0.0978641
0.0979818
0.0981341
0.0983292
0.0985753
0.0988796
0.0992493
0.0996916
0.100215
0.100832
0.101557
0.0581223
0.0510018
0.0473516
0.0476221
0.0875316
0.0852525
0.0837403
0.083904
0.0993094
0.0983051
0.0975841
0.0975162
0.105292
0.104732
0.104335
0.104365
0.108162
0.107994
0.108003
0.108354
0.108266
0.108653
0.109182
0.110166
0.123479
0.11551
0.111828
0.111382
0.150218
0.148505
0.147164
0.145953
0.168697
0.168637
0.168564
0.168441
0.182609
0.183463
0.184287
0.18508
0.193216
0.194782
0.196379
0.198026
0.201196
0.203401
0.205714
0.208171
0.206963
0.20977
0.212759
0.215986
0.210893
0.214267
0.21789
0.221832
0.213367
0.217266
0.22147
0.226054
0.214753
0.219134
0.223857
0.228998
0.215387
0.220204
0.225381
0.230989
0.215557
0.220765
0.226333
0.232322
0.215503
0.221061
0.226964
0.233258
0.215415
0.221291
0.227484
0.234026
0.215441
0.221615
0.228071
0.234824
0.215685
0.22215
0.228859
0.235812
0.216193
0.222959
0.229932
0.237099
0.216949
0.224037
0.231304
0.238723
0.217854
0.225299
0.232901
0.240624
0.218733
0.226568
0.234554
0.242643
0.219352
0.227599
0.236004
0.244516
0.219438
0.22811
0.236959
0.245925
0.218643
0.227723
0.237016
0.246462
0.216613
0.226044
0.23574
0.245639
0.213024
0.222707
0.232713
0.242987
0.207621
0.217405
0.227578
0.238089
0.200251
0.209943
0.220084
0.230637
0.190908
0.200271
0.210136
0.220477
0.179761
0.18853
0.197837
0.207668
0.167192
0.175091
0.183539
0.192533
0.153811
0.160579
0.167874
0.175704
0.140421
0.145857
0.151759
0.158141
0.127924
0.131936
0.136312
0.14107
0.117121
0.119757
0.122633
0.125761
0.108504
0.109935
0.111486
0.11316
0.102185
0.102619
0.103082
0.103573
0.0618046
0.0959959
0.173586
0.459866
0.411219
0.460318
0.52048
0.549828
0.63125
0.645658
0.575738
0.450491
0.321209
0.187903
0.186028
0.194324
0.196349
0.174185
0.0979555
0.0869867
0.100613
0.22517
0.492623
0.406632
0.42423
0.467424
0.512179
0.584856
0.617057
0.564712
0.441554
0.285271
0.201183
0.192745
0.198076
0.198716
0.179928
0.104202
0.098646
0.105538
0.152316
0.349201
0.468577
0.440144
0.451544
0.491242
0.561407
0.607602
0.568574
0.433132
0.2249
0.212831
0.206799
0.207309
0.203934
0.184652
0.107423
0.10541
0.110902
0.123935
0.174498
0.240699
0.434543
0.485824
0.54508
0.608613
0.631726
0.585045
0.409492
0.252985
0.233757
0.225913
0.219078
0.208394
0.18562
0.107451
0.109667
0.114806
0.123451
0.134633
0.154851
0.165803
0.31856
0.457174
0.518246
0.498832
0.45006
0.283123
0.270945
0.259956
0.247917
0.230258
0.208402
0.18049
0.103918
0.112308
0.116487
0.123411
0.131393
0.138494
0.143877
0.1486
0.156237
0.234187
0.265691
0.273695
0.289696
0.295403
0.291959
0.270227
0.234802
0.200612
0.167986
0.09609
0.112714
0.118261
0.125238
0.131654
0.138098
0.143505
0.147251
0.148935
0.158139
0.208913
0.261556
0.306048
0.336262
0.330629
0.281433
0.227574
0.186744
0.148964
0.0825755
0.143754
0.130535
0.126926
0.133709
0.138722
0.143225
0.146524
0.149334
0.161508
0.203405
0.279571
0.358828
0.390856
0.346213
0.269355
0.212664
0.168315
0.12572
0.0648388
0.167982
0.164707
0.161284
0.137853
0.139823
0.144271
0.146494
0.150603
0.169102
0.227151
0.32349
0.401193
0.389206
0.314691
0.239277
0.18143
0.133854
0.0982519
0.0501529
0.18634
0.187565
0.188063
0.183879
0.180251
0.14914
0.147944
0.155529
0.185815
0.261757
0.348483
0.368793
0.322871
0.255655
0.171066
0.114764
0.0986896
0.0863387
0.0445732
0.20091
0.205254
0.210248
0.215454
0.220595
0.214031
0.204092
0.169389
0.208832
0.290853
0.333768
0.330749
0.298831
0.215904
0.110891
0.0925859
0.086986
0.081825
0.0438517
0.212604
0.219872
0.229089
0.24068
0.254333
0.265796
0.273731
0.269827
0.288984
0.312035
0.324357
0.32309
0.29783
0.171816
0.0957928
0.0849457
0.0809036
0.0756081
0.0446946
0.22189
0.231956
0.245112
0.262204
0.283239
0.30528
0.32177
0.318062
0.308754
0.312937
0.322866
0.319209
0.263838
0.182888
0.115955
0.082795
0.0780599
0.0702814
0.0443055
0.22909
0.241697
0.258318
0.280046
0.306991
0.335962
0.35595
0.34844
0.325647
0.323259
0.333057
0.318458
0.276813
0.26767
0.248492
0.15861
0.081185
0.0603615
0.045487
0.234505
0.249254
0.268623
0.293798
0.324883
0.357829
0.380202
0.374303
0.348848
0.343032
0.351521
0.336064
0.323252
0.344902
0.33411
0.241848
0.134585
0.0790547
0.0482252
0.238449
0.254837
0.276078
0.303275
0.336369
0.370894
0.39518
0.39414
0.371276
0.35971
0.363915
0.362644
0.374881
0.407644
0.388912
0.28027
0.145086
0.111555
0.0514547
0.241233
0.258736
0.280958
0.308794
0.341912
0.376174
0.401485
0.405421
0.387862
0.372819
0.375339
0.387752
0.413874
0.437491
0.385493
0.26308
0.142833
0.126759
0.0518835
0.243166
0.261303
0.283737
0.3111
0.342789
0.375378
0.400571
0.408464
0.397003
0.382842
0.384927
0.404322
0.434296
0.44615
0.383405
0.222858
0.133054
0.134031
0.0550479
0.244539
0.262925
0.284997
0.311137
0.3406
0.370429
0.394413
0.4048
0.399013
0.38843
0.390744
0.411529
0.441802
0.453586
0.402183
0.147121
0.131044
0.136741
0.0603003
0.245621
0.26399
0.285335
0.309824
0.336655
0.363333
0.385182
0.396508
0.395186
0.389016
0.392582
0.413252
0.444858
0.469148
0.439821
0.143144
0.129383
0.136145
0.0659678
0.246661
0.264872
0.285318
0.307999
0.332107
0.355569
0.374864
0.385977
0.38754
0.385225
0.390746
0.412732
0.451238
0.499604
0.489747
0.167108
0.127799
0.133009
0.0699728
0.24787
0.265899
0.285446
0.306374
0.327906
0.348334
0.365019
0.375203
0.378234
0.378624
0.386168
0.41094
0.459511
0.529485
0.505025
0.164883
0.121047
0.128419
0.0715989
0.249409
0.267338
0.286123
0.305514
0.324778
0.342516
0.356759
0.365657
0.369114
0.370987
0.379792
0.406342
0.46006
0.530684
0.408065
0.138777
0.113195
0.118461
0.0712167
0.251358
0.269361
0.287631
0.305818
0.323226
0.338707
0.350795
0.358288
0.361477
0.363779
0.372627
0.39831
0.449475
0.50833
0.272001
0.129703
0.108385
0.111622
0.0701992
0.253696
0.272014
0.290099
0.307499
0.323531
0.337231
0.347503
0.3536
0.356066
0.357997
0.365943
0.389378
0.436126
0.487873
0.293312
0.126619
0.105321
0.109089
0.0697632
0.256279
0.275193
0.293478
0.310569
0.325755
0.338185
0.347013
0.351801
0.353255
0.354261
0.360887
0.382679
0.429292
0.486051
0.393176
0.125178
0.104767
0.111022
0.068717
0.258836
0.278632
0.297527
0.314824
0.329743
0.341462
0.34928
0.35295
0.353268
0.352981
0.357955
0.378325
0.426588
0.493861
0.402669
0.130962
0.107716
0.116251
0.0673146
0.260977
0.281908
0.301811
0.319844
0.335109
0.346737
0.354081
0.356982
0.35626
0.354492
0.357196
0.374183
0.417534
0.47577
0.332994
0.122884
0.112789
0.122924
0.0664613
0.262294
0.284454
0.305717
0.324994
0.341229
0.353446
0.360962
0.363631
0.362226
0.359072
0.358989
0.370182
0.401771
0.441865
0.179868
0.118654
0.11643
0.129295
0.0671451
0.262235
0.285728
0.308493
0.329453
0.347253
0.360749
0.369157
0.372281
0.370794
0.366724
0.364051
0.368969
0.387711
0.412969
0.162378
0.118562
0.12177
0.136167
0.0706834
0.260236
0.285034
0.309403
0.332258
0.352135
0.367558
0.37756
0.381878
0.381025
0.376798
0.372483
0.372812
0.38309
0.398569
0.241614
0.125139
0.129777
0.143073
0.0739087
0.255782
0.281686
0.307608
0.332422
0.354711
0.37259
0.384846
0.390999
0.391464
0.387853
0.382987
0.380684
0.386175
0.398429
0.342632
0.154123
0.140402
0.150419
0.0761334
0.24846
0.275076
0.302294
0.328969
0.353745
0.374462
0.389561
0.398221
0.400665
0.398266
0.393465
0.389215
0.390207
0.398874
0.373412
0.176447
0.151065
0.159722
0.0758927
0.238014
0.264733
0.292772
0.320961
0.348014
0.371727
0.390069
0.401882
0.406962
0.40627
0.401755
0.395525
0.391052
0.391184
0.377271
0.199774
0.161865
0.171397
0.0824599
0.224428
0.250479
0.278569
0.307599
0.336411
0.362933
0.384655
0.400111
0.408535
0.410074
0.406098
0.398416
0.389323
0.381162
0.36755
0.240057
0.17577
0.184579
0.0981997
0.207967
0.232436
0.25954
0.288405
0.318055
0.346755
0.371579
0.390793
0.403172
0.407991
0.405781
0.398104
0.386523
0.372748
0.355679
0.291662
0.19949
0.200602
0.1108
0.189251
0.211132
0.236006
0.263403
0.292555
0.322238
0.34936
0.371954
0.388463
0.397769
0.399544
0.394087
0.382675
0.36684
0.348355
0.320705
0.237207
0.219797
0.120479
0.169295
0.187614
0.208921
0.233352
0.260348
0.289155
0.317176
0.342123
0.36227
0.376293
0.383394
0.383038
0.375057
0.360708
0.343153
0.324965
0.276129
0.241404
0.128207
0.149475
0.163476
0.180125
0.200024
0.22304
0.248765
0.27554
0.300969
0.323305
0.341111
0.353354
0.359198
0.357916
0.349462
0.337993
0.323368
0.322554
0.286947
0.13015
0.131334
0.140692
0.152122
0.166587
0.184334
0.205001
0.227849
0.250968
0.272793
0.291865
0.307065
0.317528
0.322485
0.321721
0.320246
0.313612
0.356167
0.359923
0.155831
0.116149
0.121178
0.127773
0.138015
0.151111
0.166256
0.183236
0.201165
0.218911
0.235031
0.248074
0.256613
0.2592
0.255844
0.256935
0.27787
0.374049
0.426024
0.194571
0.104441
0.105942
0.108788
0.120536
0.131884
0.143667
0.156053
0.168922
0.181561
0.192497
0.199489
0.199126
0.186224
0.148734
0.150471
0.165029
0.315848
0.319919
0.202767
)
;

boundaryField
{
    leftWall
    {
        type            kqRWallFunction;
        value           nonuniform List<scalar> 
50
(
0.00410486
0.00633078
0.00717146
0.00730934
0.00743028
0.00752393
0.00748629
0.00726799
0.0069722
0.00768914
0.0187677
0.02554
0.0262468
0.0259036
0.0255812
0.0254098
0.0253361
0.0252423
0.0250985
0.0249063
0.0245753
0.024109
0.0235371
0.0228994
0.022238
0.0215927
0.0209981
0.0204824
0.0200667
0.0197645
0.0195828
0.0195221
0.0195784
0.0197447
0.0200125
0.0203718
0.0208116
0.0213199
0.0218864
0.0225065
0.0231864
0.0239475
0.0248304
0.0259025
0.027275
0.029148
0.0319406
0.0367249
0.0474156
0.0864281
)
;
    }
    rightWall
    {
        type            kqRWallFunction;
        value           nonuniform List<scalar> 
50
(
0.0472439
0.0681451
0.0759513
0.080369
0.0837753
0.0871682
0.0906712
0.0941015
0.0979555
0.104202
0.107423
0.107451
0.103918
0.09609
0.0825755
0.0648388
0.0501529
0.0445732
0.0438517
0.0446946
0.0443055
0.045487
0.0482252
0.0514547
0.0518835
0.0550479
0.0603003
0.0659678
0.0699728
0.0715989
0.0712167
0.0701992
0.0697632
0.068717
0.0673146
0.0664613
0.0671451
0.0706834
0.0739087
0.0761334
0.0758927
0.0824599
0.0981997
0.1108
0.120479
0.128207
0.13015
0.155831
0.194571
0.202767
)
;
    }
    lowerWall
    {
        type            kqRWallFunction;
        value           nonuniform List<scalar> 
62
(
0.00410486
0.00661208
0.00942826
0.0116123
0.0131019
0.0141924
0.0151453
0.0159965
0.016768
0.0174768
0.018123
0.0186948
0.0191742
0.0195266
0.019669
0.0195914
0.0191447
0.0182115
0.0167643
0.0148332
0.0131054
0.0109952
0.00977798
0.00977798
0.017115
0.0217528
0.0265829
0.0309281
0.0350929
0.0397762
0.0471717
0.0581223
0.0510018
0.0473516
0.0476221
0.0173329
0.0324011
0.0381303
0.0404092
0.0431382
0.043508
0.045425
0.0517939
0.0173329
0.0403331
0.0665661
0.104117
0.0972887
0.0999849
0.103573
0.107192
0.11138
0.117391
0.125983
0.135872
0.145309
0.152652
0.1562
0.150752
0.128749
0.0931897
0.0472439
)
;
    }
    atmosphere
    {
        type            inletOutlet;
        inletValue      uniform 0.1;
        value           nonuniform List<scalar> 
46
(
0.1
0.1
0.1
0.1
0.1
0.1
0.1
0.1
0.1
0.1
0.1
0.1
0.1
0.1
0.1
0.1
0.1
0.1
0.1
0.1
0.1
0.1
0.1
0.1
0.1
0.1
0.1
0.1
0.1
0.1
0.120536
0.131884
0.143667
0.156053
0.168922
0.181561
0.192497
0.199489
0.199126
0.186224
0.1
0.1
0.1
0.1
0.1
0.202767
)
;
    }
    defaultFaces
    {
        type            empty;
    }
}


// ************************************************************************* //
