/*--------------------------------*- C++ -*----------------------------------*\
| =========                 |                                                 |
| \\      /  F ield         | OpenFOAM: The Open Source CFD Toolbox           |
|  \\    /   O peration     | Version:  v2012                                 |
|   \\  /    A nd           | Website:  www.openfoam.com                      |
|    \\/     M anipulation  |                                                 |
\*---------------------------------------------------------------------------*/
FoamFile
{
    version     2.0;
    format      ascii;
    class       volScalarField;
    location    "0.6";
    object      nut;
}
// * * * * * * * * * * * * * * * * * * * * * * * * * * * * * * * * * * * * * //

dimensions      [0 2 -1 0 0 0 0];


internalField   nonuniform List<scalar> 
2268
(
5.83486e-05
5.44278e-05
6.48802e-05
7.19623e-05
7.64065e-05
7.94708e-05
8.20369e-05
8.4298e-05
8.63031e-05
8.81127e-05
8.97384e-05
9.11583e-05
9.23374e-05
9.32021e-05
9.35632e-05
9.33929e-05
9.23185e-05
9.00196e-05
8.63337e-05
8.11899e-05
7.63476e-05
6.99476e-05
6.59929e-05
0.000112878
0.000303469
0.000442643
0.000525886
0.000586727
0.000632903
0.000669151
0.000699856
0.000726791
0.000750807
0.000772147
0.000790662
0.000806095
0.000817789
0.000823664
0.00081383
0.000784867
0.000735897
0.000670668
0.00059411
0.000524295
0.000436849
0.000184628
0.000120139
0.000488297
0.000716595
0.000877894
0.0010066
0.00111306
0.00120371
0.00128239
0.0013514
0.00141223
0.00146547
0.00151099
0.00154826
0.00157566
0.00158868
0.00157379
0.00152217
0.0014289
0.00129617
0.00113488
0.000967582
0.000760906
0.000207901
0.000121248
0.000580321
0.000867969
0.00109378
0.00128841
0.0014591
0.0016092
0.00174117
0.00185717
0.00195906
0.00204783
0.00212347
0.00218524
0.00223072
0.0022538
0.00223906
0.00217504
0.00205346
0.00187383
0.00164564
0.00138061
0.00101614
0.000229727
0.000122053
0.000591423
0.00092247
0.00120641
0.0014658
0.00170135
0.00191202
0.00209835
0.00226227
0.0024061
0.00253136
0.00263826
0.00272593
0.00279138
0.00282729
0.00281762
0.00274936
0.00261211
0.00240255
0.002124
0.00176833
0.00123299
0.000247747
0.000122677
0.000554041
0.00090989
0.00124478
0.00156654
0.00186556
0.00213518
0.00237413
0.0025844
0.00276903
0.00293015
0.00306827
0.00318246
0.00326934
0.00332058
0.00332017
0.00325424
0.00311092
0.00288398
0.00256812
0.00213121
0.00142971
0.000263717
0.000122253
0.000497591
0.000857941
0.00123537
0.00161487
0.00197283
0.00229667
0.00258383
0.00283684
0.00305958
0.00325487
0.0034234
0.00356417
0.0036737
0.00374224
0.00375455
0.00369616
0.00355413
0.00331945
0.00297799
0.00247467
0.00162443
0.000281008
0.000120384
0.000437919
0.00079303
0.00120469
0.00163315
0.00204079
0.00241032
0.00273867
0.00302904
0.00328612
0.00351316
0.00371079
0.00387788
0.00401073
0.00409845
0.00412627
0.00407954
0.00394446
0.00370996
0.0033553
0.00281047
0.0018548
0.00030677
8.63675e-05
0.000143187
0.000225593
0.000204293
0.000204939
0.000209828
0.000213865
0.000217805
0.000222617
0.00022996
0.000239306
0.000248397
0.000256333
0.000262203
0.000264287
0.000257873
0.000236652
0.000200577
0.000198922
0.000283338
0.000498494
0.000438852
0.0004148
0.00034613
0.000265014
0.0002853
0.000463444
0.000678635
0.000897886
0.00103615
0.00118419
0.00137543
0.00158488
0.00175113
0.00177838
0.0015713
0.0011398
0.000404847
0.000308314
0.000705448
0.000645822
0.00058447
0.000566845
0.000651506
0.00208136
0.00221594
0.00171992
0.0011203
0.00123426
0.0016264
0.00218555
0.00256784
0.00286261
0.00289201
0.00249008
0.00164814
0.000429206
0.000316508
0.000693949
0.000958438
0.000870372
0.000902608
0.00187482
0.0029914
0.00329027
0.0032944
0.00313236
0.0028848
0.00263419
0.00264983
0.00323403
0.00356679
0.00359526
0.00307035
0.00194633
0.000442417
0.000327476
0.000628305
0.00104172
0.00117329
0.00124086
0.0024052
0.0033936
0.00376547
0.00391929
0.00386976
0.00362455
0.00340922
0.00359454
0.00376712
0.00404542
0.00407912
0.00348232
0.0021718
0.000452356
0.000327257
0.000702905
0.000677531
0.00132586
0.00139496
0.00259898
0.00352439
0.00388967
0.00414476
0.00420749
0.00400287
0.00370488
0.0038258
0.00420604
0.00438069
0.0044033
0.00377886
0.00236929
0.000462267
0.000336696
0.000750598
0.000571078
0.00129204
0.0014089
0.00263571
0.00346238
0.00378574
0.00413683
0.00432623
0.00420212
0.00387521
0.00382657
0.00460043
0.00461777
0.00458835
0.00397758
0.0025424
0.000471442
0.000362958
0.000907322
0.000580367
0.00124885
0.00139448
0.00239219
0.00324698
0.00353386
0.0039793
0.00429902
0.00428319
0.00398358
0.00383525
0.00471419
0.00473284
0.00465965
0.0040975
0.0026863
0.00048024
0.000117882
0.000368166
0.000716037
0.00116277
0.00164416
0.00210859
0.00253257
0.00291168
0.0032496
0.003552
0.00382321
0.00406459
0.00427394
0.00444456
0.00456527
0.00462086
0.00459753
0.00448023
0.00425643
0.0039018
0.0033523
0.00247726
0.00115902
0.000124233
0.000370789
0.000729245
0.00120562
0.00169272
0.00216978
0.00261602
0.00302407
0.00339689
0.00373905
0.00405141
0.00433256
0.00457741
0.00478195
0.00493842
0.00503402
0.00505266
0.00497149
0.00478388
0.00447608
0.00401062
0.00334905
0.0025173
0.000195716
0.000719561
0.00116844
0.00148398
0.0018383
0.00225078
0.00266383
0.00305345
0.0034153
0.00375063
0.00406621
0.00438188
0.00467148
0.00491904
0.00511733
0.00524904
0.00529507
0.00524512
0.00510601
0.00487403
0.00452412
0.00406277
0.00355001
0.000225778
0.00124761
0.00207668
0.00266788
0.00317435
0.00364039
0.00407085
0.00446023
0.00479757
0.00505873
0.00515429
0.00479489
0.00474674
0.00494298
0.00513214
0.00527549
0.00533054
0.00530995
0.00522039
0.00505652
0.00479611
0.00446464
0.00411834
0.000228899
0.00149789
0.0025646
0.00335186
0.00398875
0.00453806
0.00502173
0.00544506
0.00580304
0.00607788
0.00624063
0.00627027
0.00632923
0.00639323
0.00630409
0.00568168
0.00540819
0.00532706
0.00522208
0.00504957
0.00481036
0.00456001
0.00431796
0.000227694
0.00163186
0.00287037
0.00380705
0.00456269
0.00520002
0.00574843
0.00622049
0.00661847
0.00693519
0.00716632
0.0073199
0.0074357
0.00750428
0.00746827
0.00727248
0.00706535
0.00675852
0.00605991
0.00525766
0.00486141
0.00457986
0.00432642
0.000226496
0.00171642
0.00307443
0.00413436
0.00499476
0.00571558
0.00632958
0.0068542
0.00729778
0.00766237
0.00794663
0.00816231
0.00832175
0.00842277
0.00844829
0.00838848
0.00826893
0.00806327
0.00771244
0.00730911
0.00693578
0.0065033
0.00588319
0.000225936
0.00176532
0.00322044
0.00438268
0.00533288
0.00612782
0.00680197
0.00737619
0.00786302
0.00826974
0.00860057
0.00885991
0.00905728
0.00919524
0.0092705
0.00928194
0.00923425
0.00912001
0.00892646
0.00867764
0.00838663
0.00801874
0.00752603
0.000225701
0.00179872
0.00333214
0.00457752
0.00560244
0.00646047
0.00718679
0.00780459
0.00832933
0.00877147
0.00913829
0.00943548
0.00966805
0.00984038
0.00995559
0.0100158
0.0100227
0.00997436
0.00986646
0.00970524
0.00949076
0.00921072
0.0088553
0.000225334
0.00182577
0.00341931
0.00473049
0.00581631
0.00672684
0.00749722
0.00815206
0.00870887
0.00918028
0.00957557
0.00990182
0.0101648
0.0103691
0.0105186
0.010616
0.0106635
0.0106611
0.010609
0.0105088
0.0103599
0.0101593
0.00990663
0.000224711
0.0018448
0.00348301
0.00484567
0.00598071
0.00693467
0.007742
0.00842809
0.00901182
0.00950738
0.00992557
0.0102747
0.0105613
0.0107908
0.0109673
0.011094
0.0111732
0.0112065
0.0111952
0.0111408
0.0110443
0.0109066
0.0107296
0.000223863
0.00185147
0.00352141
0.00492456
0.00609916
0.00708912
0.00792765
0.00864032
0.00924688
0.00976262
0.0101995
0.0105668
0.010872
0.0111209
0.0113181
0.0114673
0.0115711
0.0116317
0.0116513
0.0116321
0.0115764
0.0114869
0.0113665
0.00022239
0.00185054
0.00353994
0.00496963
0.00617489
0.00719465
0.00805974
0.00879541
0.00942173
0.00995471
0.0104071
0.010789
0.0111086
0.0113722
0.011585
0.0117508
0.0118728
0.0119538
0.0119964
0.0120036
0.0119787
0.0119256
0.0118477
0.000220289
0.00184175
0.00353981
0.00498719
0.00621352
0.00725582
0.00814366
0.00889947
0.0095433
0.0100914
0.0105569
0.0109507
0.0112813
0.0115557
0.0117794
0.0119567
0.0120913
0.0121863
0.012245
0.0122711
0.0122686
0.0122421
0.0121958
0.000217681
0.00182585
0.00352261
0.00497934
0.0062206
0.00727986
0.00818483
0.00895838
0.00961791
0.0101795
0.0106566
0.01106
0.0113989
0.0116806
0.0119111
0.0120953
0.0122371
0.0123405
0.0124091
0.0124473
0.01246
0.0124524
0.0124296
0.000214733
0.00180401
0.00349075
0.0049493
0.00619972
0.00727181
0.00819082
0.00897802
0.00965137
0.0102253
0.0107124
0.0111237
0.0114686
0.0117546
0.0119882
0.0121748
0.0123191
0.0124254
0.0124984
0.0125429
0.0125648
0.0125701
0.0125647
0.000211629
0.0017776
0.00344706
0.00490088
0.0061552
0.00723616
0.00816636
0.00896526
0.00964966
0.0102339
0.0107298
0.0111476
0.0114962
0.0117838
0.0120172
0.0122022
0.0123443
0.0124489
0.0125212
0.0125672
0.0125934
0.0126069
0.0126147
0.000208552
0.00174809
0.00339453
0.00483814
0.00609168
0.00717775
0.00811626
0.00892472
0.00961852
0.010211
0.0107137
0.0111362
0.0114868
0.0117734
0.0120032
0.0121829
0.0123189
0.0124173
0.0124848
0.0125283
0.0125553
0.012574
0.0125921
0.000205672
0.00171692
0.00333615
0.00476515
0.00601387
0.00710153
0.00804541
0.00886104
0.00956231
0.0101614
0.0106689
0.0110938
0.0114443
0.0117275
0.011951
0.0121221
0.0122483
0.0123371
0.0123965
0.0124345
0.0124599
0.0124815
0.0125083
0.000203137
0.0016855
0.00327477
0.00468588
0.0059264
0.00701241
0.00795871
0.00877891
0.0094854
0.0100891
0.0105995
0.0110248
0.0113727
0.0116502
0.0118648
0.0120246
0.0121381
0.0122146
0.0122634
0.0122942
0.0123165
0.0123402
0.0123746
0.000201062
0.00165509
0.00321308
0.00460409
0.00583373
0.00691522
0.00786102
0.00868303
0.00939221
0.00999825
0.0105095
0.0109332
0.0112762
0.0115456
0.0117492
0.0118955
0.0119943
0.0120567
0.0120937
0.0121163
0.0121352
0.0121607
0.0122023
0.000199532
0.00162682
0.00315353
0.00452328
0.00574012
0.00681461
0.00775714
0.0085781
0.00928726
0.00989318
0.0104031
0.0108232
0.0111595
0.0114187
0.011609
0.0117402
0.0118234
0.0118709
0.0118956
0.0119101
0.011926
0.0119537
0.0120025
0.000198593
0.00160166
0.0030983
0.00444667
0.00564952
0.006715
0.00765168
0.00846873
0.00917502
0.00977823
0.0102846
0.0106992
0.0110272
0.0112749
0.0114506
0.0115652
0.0116317
0.0116644
0.0116775
0.0116846
0.0116983
0.0117291
0.0117853
0.000198255
0.00158036
0.00304926
0.00437708
0.00556549
0.00662043
0.00754896
0.00835934
0.00905988
0.00965772
0.0101583
0.0105658
0.0108843
0.0111196
0.0112801
0.0113776
0.011427
0.0114444
0.0114463
0.0114475
0.0114603
0.0114948
0.0115588
0.000198503
0.00156349
0.00300791
0.00431688
0.00549106
0.00653447
0.00745286
0.00825395
0.0089459
0.00953571
0.0100284
0.0104273
0.0107355
0.0109581
0.0111033
0.0111839
0.0112161
0.0112184
0.0112091
0.0112043
0.0112171
0.0112565
0.0113286
0.000199298
0.00155138
0.00297534
0.00426786
0.00542869
0.00646006
0.00736668
0.00815605
0.00883666
0.00941581
0.00989848
0.0102875
0.010585
0.010795
0.0109255
0.0109896
0.0110051
0.0109923
0.0109713
0.01096
0.0109718
0.0110157
0.0110965
0.000200591
0.00154415
0.00295217
0.00423125
0.00538015
0.00639945
0.00729303
0.00806853
0.00873515
0.00930107
0.0097717
0.0101496
0.0104361
0.0106341
0.0107507
0.0107993
0.0107984
0.0107702
0.0107368
0.0107174
0.0107264
0.0107728
0.0108606
0.000202323
0.00154171
0.0029386
0.0042077
0.00534659
0.00635425
0.00723391
0.00799361
0.00864376
0.00919389
0.00965043
0.0100161
0.0102915
0.0104783
0.0105823
0.0106163
0.0105994
0.0105552
0.0105077
0.0104777
0.0104808
0.0105263
0.0106182
0.000204429
0.0015438
0.00293453
0.00419743
0.00532863
0.00632548
0.00719069
0.00793297
0.0085643
0.00909615
0.00953649
0.00988873
0.010153
0.0103295
0.0104224
0.0104431
0.0104107
0.0103496
0.0102855
0.0102413
0.0102339
0.0102738
0.0103653
0.000206841
0.00155011
0.00293966
0.00420042
0.00532661
0.00631385
0.00716438
0.00788784
0.00849818
0.00900926
0.00943121
0.00976868
0.0100217
0.010189
0.0102726
0.0102817
0.0102344
0.0101553
0.0100717
0.0100086
0.00998498
0.0100129
0.0100978
0.000209499
0.00156037
0.0029538
0.00421674
0.00534091
0.00631999
0.00715582
0.00785924
0.0084465
0.00893436
0.00933562
0.00965677
0.00989819
0.0100573
0.0101337
0.0101335
0.0100726
0.00997496
0.00986897
0.0097817
0.00973487
0.00974287
0.00981289
0.000212375
0.00157451
0.00297715
0.00424695
0.00537235
0.00634484
0.007166
0.00784817
0.00841032
0.00887247
0.00925062
0.00955362
0.00978281
0.00993471
0.0100061
0.00999952
0.00992735
0.00981173
0.0096811
0.0095646
0.00948699
0.00946581
0.00951095
0.000215494
0.00159287
0.00301066
0.00429258
0.00542269
0.00639008
0.00719635
0.00785583
0.00839069
0.00882458
0.00917704
0.00945978
0.00967568
0.00982089
0.00988965
0.00988038
0.00980075
0.00966943
0.00951365
0.00936392
0.00924816
0.00918781
0.00919641
0.000218946
0.00161637
0.00305658
0.00435677
0.00549529
0.00645864
0.00724907
0.00788379
0.00838876
0.00879166
0.00911572
0.0093758
0.00957684
0.00971533
0.00978356
0.00977575
0.00969401
0.00955178
0.00937322
0.00918875
0.00902903
0.00891981
0.00887929
0.000222901
0.00164688
0.00311912
0.00444524
0.00559589
0.00655519
0.00732742
0.00793402
0.00840574
0.00877455
0.00906738
0.00930217
0.00948626
0.0096172
0.00968627
0.00968405
0.00960679
0.00946125
0.00926621
0.00904973
0.00884373
0.00867803
0.00857622
0.000227637
0.0016877
0.00320568
0.0045676
0.00573372
0.00668683
0.00743584
0.00800886
0.00844266
0.00877376
0.00903239
0.0092392
0.00940383
0.00952548
0.00959553
0.00960216
0.00953631
0.00939741
0.00919668
0.00895687
0.00870837
0.00848349
0.00831108
0.000233589
0.00174447
0.00332892
0.00473969
0.00592296
0.00686345
0.00757983
0.00811055
0.00849994
0.008789
0.00901046
0.00918672
0.00932922
0.00943901
0.00950864
0.00952551
0.0094769
0.00935541
0.00916361
0.00891596
0.00863747
0.00835948
0.00811423
0.00024151
0.00182689
0.00351079
0.00498729
0.00618446
0.00709778
0.00776512
0.00824037
0.0085767
0.00881876
0.00900026
0.00914385
0.00926173
0.00935656
0.00942277
0.00944874
0.00942034
0.00932545
0.00915856
0.00892425
0.00863829
0.00832607
0.00801868
0.000252901
0.00195284
0.00379172
0.00535282
0.00654732
0.00740396
0.0079956
0.00839706
0.00866984
0.00885983
0.00899918
0.00910877
0.00920018
0.00927694
0.00933555
0.00936674
0.00935748
0.00929398
0.00916536
0.00896724
0.0087043
0.00839117
0.00805136
0.00027136
0.00216166
0.00425446
0.00590732
0.00704837
0.00779275
0.00826935
0.0085746
0.00877316
0.00890709
0.00900341
0.00907894
0.00914303
0.00919914
0.00924555
0.00927599
0.00928049
0.00924694
0.00916316
0.00901953
0.00881148
0.0085414
0.00821982
0.000308803
0.00257064
0.00509725
0.00676888
0.00772208
0.00826007
0.00857244
0.00876012
0.00887718
0.00895408
0.00900869
0.00905163
0.00908884
0.00912273
0.00915275
0.00917559
0.00918535
0.00917406
0.00913247
0.00905116
0.00892192
0.00873901
0.00850051
0.000418979
0.00378199
0.00690183
0.00810061
0.00855869
0.00876551
0.0088728
0.00893374
0.00897067
0.00899462
0.00901162
0.00902514
0.00903713
0.00904846
0.00905906
0.00906798
0.00907338
0.00907255
0.00906203
0.00903774
0.00899529
0.0089301
0.00883763
0.000342963
0.00032232
0.000311961
0.000314113
0.00202973
0.00186856
0.00179846
0.00179222
0.00324112
0.00306487
0.00293123
0.0028355
0.00388868
0.00373536
0.00359522
0.00347224
0.0041467
0.00402387
0.00390234
0.00378902
0.00413898
0.00401725
0.00391541
0.00382709
0.00513751
0.00445875
0.00407962
0.00390255
0.0070723
0.0067546
0.00645744
0.00616626
0.00854534
0.00832193
0.00808873
0.00784156
0.00968414
0.00951996
0.00934372
0.00915403
0.0105699
0.0104503
0.01032
0.0101784
0.0112539
0.0111678
0.0110726
0.0109671
0.0117703
0.0117096
0.0116407
0.0115623
0.0121452
0.0121039
0.0120554
0.0119981
0.0123995
0.0123738
0.012342
0.0123025
0.0125511
0.0125384
0.0125215
0.0124985
0.0126151
0.0126139
0.0126106
0.0126036
0.0126045
0.0126138
0.0126233
0.0126317
0.0125315
0.0125504
0.0125718
0.0125944
0.0124076
0.0124352
0.0124671
0.0125024
0.0122441
0.0122795
0.0123207
0.0123669
0.0120524
0.0120947
0.0121438
0.0121989
0.0118427
0.0118912
0.011947
0.0120095
0.0116236
0.0116777
0.0117395
0.0118081
0.0114003
0.0114601
0.0115275
0.0116016
0.011175
0.0112401
0.0113132
0.0113929
0.0109456
0.0110161
0.0110948
0.0111804
0.0107082
0.0107832
0.0108671
0.0109586
0.0104574
0.0105356
0.0106239
0.0107206
0.010188
0.0102671
0.0103578
0.0104585
0.00989551
0.00997221
0.0100623
0.0101643
0.00957836
0.009648
0.00973311
0.00983224
0.00923923
0.00929581
0.00936999
0.00946051
0.00888662
0.00892296
0.00897885
0.00905332
0.00853643
0.00854444
0.00857349
0.00862307
0.00821329
0.00818476
0.00817782
0.00819259
0.0079513
0.00787942
0.00782803
0.00779811
0.00779235
0.00767471
0.00757386
0.00749188
0.00777923
0.00762273
0.00747602
0.00734214
0.00794159
0.00776837
0.00759529
0.00742561
0.00827804
0.00812926
0.00797216
0.00780881
0.00874512
0.00867907
0.00860575
0.00852536
0.000792901
0.00129406
0.000804264
0.00140818
0.00164986
0.00205988
0.00267754
0.00310788
0.00368623
0.00414248
0.00425698
0.00401422
0.00386411
0.00470491
0.00473326
0.00465972
0.00417387
0.00282148
0.000489863
0.00191178
0.00194844
0.00136504
0.00154424
0.00172568
0.00196537
0.0023117
0.00264813
0.00319077
0.00372652
0.00398073
0.00382796
0.00378723
0.0047146
0.00472583
0.00465121
0.00422346
0.00293637
0.000506111
0.00273252
0.00266184
0.00211757
0.0011726
0.00179005
0.00192542
0.00212552
0.00241812
0.00292619
0.00350346
0.00383527
0.00368992
0.00446741
0.00483363
0.00475409
0.00464046
0.00423678
0.0030021
0.000514208
0.00330319
0.00319873
0.00300118
0.00181566
0.00140418
0.00188288
0.00219242
0.00260329
0.00314996
0.003671
0.00398182
0.00378757
0.0049665
0.00492207
0.0047744
0.0045984
0.00418639
0.00299776
0.000514039
0.00362919
0.00354134
0.00350009
0.00319105
0.0028201
0.00223244
0.00195974
0.00261296
0.00317963
0.0035399
0.00390887
0.00512751
0.00519196
0.00499426
0.00475481
0.00448493
0.00402806
0.00290013
0.000504771
0.0037306
0.00369632
0.00370461
0.00369033
0.00364423
0.00363425
0.00348417
0.00334757
0.00255082
0.00341329
0.00507432
0.00535417
0.00524307
0.0049977
0.0046409
0.00423222
0.00375215
0.00270422
0.000484097
0.00374856
0.00371789
0.00378281
0.00384668
0.00390305
0.00396659
0.00403444
0.0041057
0.00423235
0.00474233
0.00512672
0.00526203
0.00519095
0.00489052
0.00435575
0.00388574
0.00342711
0.00241506
0.000447251
0.0056477
0.00439434
0.00382382
0.00390696
0.00398386
0.00406525
0.00413346
0.00421733
0.00438532
0.00464817
0.00492793
0.00510565
0.00503499
0.00455548
0.00397667
0.00353436
0.00300875
0.00198402
0.000393015
0.00740027
0.00664294
0.00584895
0.00412139
0.00401366
0.00410873
0.00417364
0.00426652
0.00440785
0.00458762
0.00484532
0.00498934
0.0047365
0.00415368
0.00348177
0.00281758
0.00204052
0.0012534
0.00034481
0.0088173
0.00828558
0.00764534
0.00671327
0.00588782
0.0042709
0.00419879
0.00429609
0.00440793
0.00459735
0.00482623
0.00475647
0.00432769
0.00360988
0.00251171
0.00158038
0.00122959
0.000915706
0.000325485
0.00992619
0.0095224
0.00901009
0.00832521
0.00750807
0.00631889
0.00527748
0.00421564
0.00425401
0.00457708
0.0046949
0.00455873
0.00419351
0.00307426
0.00156392
0.00121635
0.00104908
0.000854742
0.000325353
0.0107771
0.0104541
0.0100125
0.00939636
0.00857824
0.00750456
0.00632642
0.00505713
0.00456885
0.00460863
0.00465041
0.00453861
0.00419627
0.00244648
0.00129546
0.00109634
0.000955432
0.000780443
0.000326947
0.0114182
0.0111498
0.0107483
0.0101525
0.00932816
0.00827502
0.00705939
0.00574545
0.00487199
0.00473552
0.00466245
0.00452128
0.00382808
0.00262389
0.00144806
0.000969515
0.00087862
0.000693824
0.000327313
0.0118905
0.0116669
0.0113013
0.0107289
0.00991627
0.00887384
0.00769621
0.00636161
0.00533398
0.00499251
0.00495879
0.00475609
0.00425853
0.0038212
0.00327
0.00197622
0.000839252
0.000522416
0.000333012
0.0122276
0.0120499
0.0117311
0.0112029
0.0104279
0.00943965
0.00832053
0.00705356
0.00598295
0.00551929
0.00544984
0.00529318
0.00505632
0.0048836
0.00432771
0.00310058
0.00167791
0.000774374
0.000346364
0.0124552
0.0123292
0.0120722
0.0116135
0.0109087
0.0099959
0.00894453
0.00777472
0.00670986
0.00613474
0.00598157
0.00590768
0.00577227
0.00553243
0.00478843
0.00348295
0.00185272
0.00128191
0.000356078
0.0125918
0.0125223
0.0123388
0.011969
0.0113607
0.0105326
0.00955228
0.00846364
0.00743945
0.00677751
0.00654063
0.00646292
0.00625973
0.00577208
0.00466878
0.00333854
0.00201406
0.0015156
0.000360148
0.0126504
0.0126386
0.0125333
0.0122619
0.0117656
0.0110333
0.0101282
0.00911256
0.0081339
0.00742893
0.00709716
0.00692307
0.00658434
0.00589584
0.00464684
0.00292638
0.00212717
0.00168186
0.000377437
0.0126412
0.0126837
0.0126539
0.0124803
0.0120973
0.011478
0.0106578
0.00971152
0.00878011
0.00805545
0.00762192
0.00731268
0.00685375
0.00610596
0.00488597
0.00221089
0.00214003
0.00175232
0.000395277
0.012574
0.0126638
0.012701
0.0126179
0.0123447
0.0118399
0.0111178
0.01025
0.0093673
0.00862525
0.00808672
0.00763937
0.00711376
0.00642837
0.00529332
0.00220279
0.0021358
0.00178168
0.000410334
0.0124589
0.012587
0.0126792
0.0126741
0.0125021
0.0121114
0.0114969
0.0107151
0.00987933
0.00911637
0.00847985
0.00791871
0.00736583
0.00677406
0.00564969
0.00240022
0.00211983
0.00177098
0.000418059
0.0123072
0.0124641
0.0125976
0.0126546
0.0125701
0.0122866
0.0117823
0.0110915
0.0103022
0.00951687
0.00879081
0.00812926
0.00753415
0.00693008
0.00555237
0.0024714
0.002079
0.00174471
0.000419054
0.0121307
0.0123077
0.0124695
0.0125716
0.0125564
0.0123662
0.0119664
0.011367
0.0106264
0.00982223
0.00901277
0.00824242
0.00754688
0.00677301
0.00453246
0.00235634
0.00205692
0.00170592
0.000415465
0.0119398
0.0121306
0.0123102
0.0124418
0.0124766
0.0123607
0.0120518
0.0115388
0.0108496
0.0100363
0.00915461
0.00827224
0.00744464
0.00647277
0.00340318
0.00231534
0.00200901
0.00164941
0.000413315
0.0117426
0.0119437
0.0121343
0.0122836
0.0123511
0.0122891
0.0120529
0.011616
0.0109799
0.0101717
0.0092403
0.00827156
0.00735453
0.00633838
0.00376353
0.00226907
0.0019435
0.00158557
0.000413835
0.0115432
0.0117543
0.0119533
0.0121134
0.0122011
0.0121755
0.0119935
0.0116196
0.0110357
0.0102472
0.00929396
0.00827949
0.00734826
0.00645396
0.00488458
0.0020715
0.00189942
0.00155447
0.000410952
0.011341
0.0115641
0.0117728
0.0119423
0.0120439
0.0120429
0.0119
0.0115767
0.0110426
0.0102857
0.00933413
0.00830017
0.00737475
0.00657481
0.00504418
0.0022059
0.00191082
0.001569
0.000409741
0.0111307
0.0113695
0.011592
0.011774
0.0118895
0.0119083
0.0117958
0.0115144
0.0110282
0.010313
0.00938195
0.00833819
0.00738026
0.00650317
0.00440884
0.00226816
0.00197217
0.0016209
0.000406485
0.0109041
0.0111618
0.0114034
0.011604
0.0117383
0.0117788
0.011695
0.0114527
0.0110156
0.010353
0.00946309
0.00842276
0.00739582
0.00632602
0.0027657
0.0022628
0.00201856
0.00167633
0.000408896
0.0106519
0.0109287
0.0111943
0.0114204
0.0115811
0.0116502
0.0115996
0.0113994
0.0110164
0.0104193
0.00959579
0.00859275
0.00752665
0.0063543
0.00269375
0.00225962
0.00204544
0.00171666
0.00041958
0.0103641
0.0106579
0.0109486
0.011206
0.011401
0.0115075
0.0114987
0.0113472
0.011026
0.0105072
0.0097753
0.00885474
0.00782594
0.00666334
0.00394124
0.00229163
0.00207095
0.00174997
0.000428191
0.0100323
0.010337
0.0106503
0.0109407
0.0111757
0.0113279
0.0113703
0.0112768
0.0110246
0.0105919
0.00996697
0.00916191
0.00823319
0.00720777
0.00566615
0.00236557
0.00209727
0.00180331
0.000433256
0.00965179
0.00995643
0.0102853
0.0106049
0.0108813
0.0110835
0.0111842
0.011157
0.0109802
0.0106372
0.0101198
0.00943636
0.00861541
0.00768421
0.00634933
0.00255169
0.00213856
0.00186689
0.00043314
0.00922387
0.00951194
0.00984365
0.0101831
0.0104955
0.0107467
0.0109079
0.0109514
0.0108531
0.0105979
0.0101823
0.0096105
0.00888157
0.00797858
0.00666097
0.00285029
0.00218128
0.00190487
0.000450769
0.00875831
0.00900905
0.00932335
0.00966585
0.0100014
0.0102934
0.0105108
0.0106225
0.0106029
0.0104317
0.0101038
0.00963478
0.00899642
0.0081305
0.0068158
0.00351551
0.0022285
0.00192208
0.000493751
0.00827564
0.00846345
0.00873342
0.00905461
0.00939234
0.0097085
0.00996954
0.0101414
0.010196
0.0101096
0.00987618
0.00948906
0.00892086
0.00811819
0.0069077
0.00455674
0.00229513
0.00196591
0.000522171
0.00781094
0.00790615
0.00809911
0.00836692
0.0086771
0.00899134
0.00927403
0.00948898
0.00960513
0.00959847
0.00945948
0.00915009
0.00866105
0.00794659
0.00688517
0.00514905
0.00242006
0.00202078
0.000538347
0.00741823
0.00739038
0.0074696
0.00764526
0.00788939
0.00816566
0.00843737
0.00866793
0.00882241
0.00887346
0.00880288
0.00858641
0.0081883
0.00757917
0.006659
0.00520936
0.00279259
0.0020826
0.000551142
0.00717444
0.00700038
0.00693209
0.00697297
0.0071057
0.00729797
0.00751431
0.00772084
0.00787913
0.00795723
0.00793
0.00777425
0.00746588
0.00696526
0.00621292
0.00505819
0.00338703
0.00217321
0.000550509
0.00717913
0.00686225
0.00663027
0.00650492
0.00648148
0.00653721
0.00664145
0.00676832
0.00687975
0.00693961
0.00691716
0.00678561
0.00652142
0.00609916
0.00547837
0.00446177
0.00298309
0.002491
0.000607043
0.00754474
0.00715573
0.00679595
0.00649911
0.00627709
0.00615038
0.00609015
0.00607619
0.00607846
0.00606021
0.00598451
0.00581276
0.00550966
0.00504529
0.0044607
0.00356099
0.00282521
0.00258202
0.000684771
0.00838219
0.00813633
0.00778945
0.0070453
0.00655097
0.00624714
0.00604739
0.0059065
0.0057999
0.00569875
0.00557326
0.0053912
0.0051563
0.0047777
0.00412645
0.0025966
0.00187516
0.0019822
0.000694722
)
;

boundaryField
{
    leftWall
    {
        type            nutkWallFunction;
        blending        stepwise;
        Cmu             0.09;
        kappa           0.41;
        E               9.8;
        value           nonuniform List<scalar> 
50
(
1.0879e-05
1.3348e-05
1.41515e-05
1.42782e-05
1.43882e-05
1.44727e-05
1.44388e-05
1.42403e-05
1.39736e-05
8.75076e-06
1.91405e-05
2.3761e-05
2.42008e-05
2.39881e-05
2.37868e-05
2.36792e-05
2.36329e-05
2.35737e-05
2.34828e-05
2.33607e-05
2.31494e-05
2.28489e-05
2.24758e-05
2.20536e-05
2.16086e-05
2.11672e-05
2.07538e-05
2.03898e-05
2.00925e-05
1.98743e-05
1.97421e-05
1.96977e-05
1.97389e-05
1.98599e-05
2.00535e-05
2.0311e-05
2.06227e-05
2.09783e-05
2.1369e-05
2.17901e-05
2.22444e-05
2.2744e-05
2.33124e-05
2.39874e-05
2.48288e-05
2.59392e-05
2.7522e-05
3.0061e-05
3.51267e-05
4.95016e-05
)
;
    }
    rightWall
    {
        type            nutkWallFunction;
        blending        stepwise;
        Cmu             0.09;
        kappa           0.41;
        E               9.8;
        value           nonuniform List<scalar> 
50
(
3.71885e-05
4.3947e-05
4.61732e-05
4.73779e-05
4.82824e-05
4.91688e-05
5.00613e-05
5.09151e-05
5.18542e-05
5.33332e-05
5.4077e-05
5.40845e-05
5.32677e-05
5.14019e-05
4.79735e-05
4.29677e-05
3.8218e-05
3.62935e-05
3.62378e-05
3.6419e-05
3.61879e-05
3.66257e-05
3.79408e-05
3.95737e-05
3.89803e-05
4.0048e-05
4.17483e-05
4.34944e-05
4.46792e-05
4.51683e-05
4.54971e-05
4.51986e-05
4.50636e-05
4.47395e-05
4.41959e-05
4.38842e-05
4.40828e-05
4.51199e-05
4.60475e-05
4.66744e-05
4.6754e-05
4.89875e-05
5.30522e-05
5.59793e-05
5.82237e-05
5.99044e-05
6.03155e-05
6.54711e-05
7.24344e-05
7.58945e-05
)
;
    }
    lowerWall
    {
        type            nutkWallFunction;
        blending        stepwise;
        Cmu             0.09;
        kappa           0.41;
        E               9.8;
        value           nonuniform List<scalar> 
62
(
5.2203e-06
6.63244e-06
7.89418e-06
8.73286e-06
9.25532e-06
9.61712e-06
9.92084e-06
1.01832e-05
1.04145e-05
1.06217e-05
1.08067e-05
1.09673e-05
1.10999e-05
1.11961e-05
1.12348e-05
1.12137e-05
1.10918e-05
1.08317e-05
1.04134e-05
9.82258e-06
9.25681e-06
8.50573e-06
8.03534e-06
8.03534e-06
2.11952e-05
2.36703e-05
2.59549e-05
2.78215e-05
2.94794e-05
3.12192e-05
3.3751e-05
3.73046e-05
3.51435e-05
3.39711e-05
3.40596e-05
3.06581e-06
3.16908e-05
3.49745e-05
3.62035e-05
3.76354e-05
3.60198e-05
3.65283e-05
3.87781e-05
3.06581e-06
1.03166e-05
1.60935e-05
2.63297e-05
2.37071e-05
2.39701e-05
2.43613e-05
2.47494e-05
2.51827e-05
2.57937e-05
2.66417e-05
2.75806e-05
2.84426e-05
2.90923e-05
2.93999e-05
2.89264e-05
2.69091e-05
2.31961e-05
1.69451e-05
)
;
    }
    atmosphere
    {
        type            calculated;
        value           nonuniform List<scalar> 
46
(
0.009
0.009
0.009
0.009
0.009
0.009
0.009
0.009
0.009
0.009
0.009
0.009
0.009
0.009
0.009
0.009
0.009
0.009
0.009
0.009
0.009
0.009
0.009
0.009
0.009
0.009
0.009
0.009
0.009
0.009
0.0070453
0.00655097
0.00624714
0.00604739
0.0059065
0.0057999
0.00569875
0.00557326
0.0053912
0.0051563
0.009
0.009
0.009
0.009
0.009
0.000694722
)
;
    }
    defaultFaces
    {
        type            empty;
    }
}


// ************************************************************************* //
