/*--------------------------------*- C++ -*----------------------------------*\
| =========                 |                                                 |
| \\      /  F ield         | OpenFOAM: The Open Source CFD Toolbox           |
|  \\    /   O peration     | Version:  v2012                                 |
|   \\  /    A nd           | Website:  www.openfoam.com                      |
|    \\/     M anipulation  |                                                 |
\*---------------------------------------------------------------------------*/
FoamFile
{
    version     2.0;
    format      ascii;
    class       volScalarField;
    location    "0.6";
    object      p;
}
// * * * * * * * * * * * * * * * * * * * * * * * * * * * * * * * * * * * * * //

dimensions      [1 -1 -2 0 0 0 0];


internalField   nonuniform List<scalar> 
2268
(
529.977
528.466
533.798
542.667
553.679
565.968
579.511
594.515
611.082
629.212
648.786
669.581
691.341
713.803
736.691
759.73
782.599
804.889
825.623
846.319
859.095
863.328
880.183
470.91
468.576
473.202
481.723
492.508
504.8
518.526
533.772
550.6
568.984
588.796
609.822
631.82
654.547
677.746
701.215
724.738
747.985
770.124
790.204
805.301
803.397
819.669
410.631
408.592
413.411
421.322
431.707
443.835
457.59
472.988
490.031
508.657
528.729
550.021
572.306
595.362
618.94
642.832
666.868
690.687
713.47
733.718
749.272
747.6
762.022
350.139
348.567
353.731
361.235
371.218
383.107
396.787
412.243
429.437
448.286
468.629
490.21
512.813
536.235
560.199
584.482
608.893
633.007
656.035
676.309
691.773
693.99
707.378
289.879
288.996
293.991
301.232
310.823
322.428
335.971
351.427
368.737
387.8
408.434
430.328
453.275
477.108
501.496
526.19
550.967
575.315
598.52
618.94
634.683
640.389
655.515
229.701
229.71
234.227
241.144
250.319
261.604
274.978
290.407
307.82
327.109
348.069
370.297
393.619
417.924
442.801
467.979
493.208
517.851
541.314
562.099
578.381
587.504
605.252
169.359
170.268
174.17
180.643
189.369
200.328
213.546
228.975
246.532
266.121
287.51
310.109
333.804
358.668
384.104
409.857
435.66
460.697
484.547
505.894
522.856
535.174
555.763
108.578
109.606
112.765
118.659
127.009
137.766
150.945
166.497
184.38
204.568
226.756
249.863
273.869
299.396
325.445
351.845
378.305
403.839
428.214
450.271
467.906
481.766
507.639
435.562
436.253
435.443
433.625
423.865
402.582
358.078
351.773
356.005
366.814
385.794
409.904
440.461
587.493
1001.15
1528.92
1840.37
1897.45
1801.78
435.447
436.267
434.682
414.717
338.368
326.746
324.742
325.608
326.574
329.663
336.606
339.017
339.58
436.812
803.421
1325.78
1667.82
1776.13
1722.94
435.264
436.012
432.345
370.544
330.135
325.436
324.821
325.621
326.456
327.388
328.253
327.941
319.951
338.517
615.004
1133.89
1496.95
1645.36
1631.35
435.151
435.934
427.92
349.124
328.073
325.189
324.764
325.415
326.313
327.316
328.244
328.784
326.766
318.83
471.805
970.697
1344.54
1509.14
1526.5
434.757
435.283
421.34
345.591
326.476
324.944
324.634
325.172
326.113
327.132
328.034
328.697
328.463
326.487
391.949
832.237
1207.34
1372.21
1413.92
428.538
427.445
410.32
344.507
325.75
324.73
324.432
324.886
325.907
326.994
327.927
328.591
328.667
328.606
356.482
719.672
1085.52
1243
1304.38
375.403
368.133
383.64
338.548
325.654
324.567
324.179
324.568
325.685
326.861
327.844
328.515
328.653
329.609
346.952
642.634
979.252
1125.68
1202.7
300.718
318
359.746
333.655
326.146
324.479
323.899
324.233
325.445
326.722
327.754
328.446
328.649
329.847
344.535
597.724
886.996
1022.09
1107.31
37.7156
37.2183
38.2524
41.797
47.4249
54.6463
63.8868
75.6548
90.5412
109.201
131.491
155.244
180.429
206.531
233.709
261.299
288.92
315.331
340.714
364.16
382.882
395.068
402.105
-0.290367
-0.208374
-0.0892261
0.44402
1.53292
3.03641
5.19647
8.3586
12.9481
19.6652
29.3388
42.8632
60.809
82.2682
107.905
137.769
168.948
196.534
223.554
250.493
272.75
292.707
313.095
-0.311309
-0.318925
-0.308248
-0.294934
-0.293437
-0.28785
-0.287053
-0.295419
-0.31272
-0.320694
-0.264471
0.542213
3.84545
10.0386
20.2525
36.7345
58.2283
80.4189
107.917
137.38
161.832
182.9
202.868
-0.482522
-0.47426
-0.453393
-0.447742
-0.44796
-0.450485
-0.454724
-0.459937
-0.464197
-0.462458
-0.447187
-0.428645
-0.463726
-0.547283
-0.559638
0.159554
3.09089
10.6782
25.1359
45.2697
61.0713
79.4002
102.773
-0.613428
-0.610441
-0.601125
-0.596248
-0.594203
-0.593687
-0.594614
-0.596697
-0.598755
-0.601655
-0.603371
-0.619838
-0.646857
-0.663859
-0.658213
-0.662589
-0.734108
-0.910122
-0.865963
0.541862
5.47851
15.2563
31.7272
-0.751429
-0.749439
-0.744988
-0.741905
-0.740058
-0.739388
-0.740014
-0.741856
-0.744453
-0.747124
-0.750922
-0.761832
-0.780361
-0.798151
-0.812509
-0.835852
-0.864652
-0.875219
-0.886736
-0.946695
-1.08635
-1.20937
-1.18767
-0.891291
-0.889911
-0.887707
-0.885848
-0.884773
-0.884619
-0.885485
-0.887375
-0.890179
-0.893845
-0.898454
-0.907183
-0.921212
-0.937682
-0.954572
-0.97623
-1.00437
-1.03634
-1.04682
-1.0488
-1.05438
-1.05521
-1.03511
-1.03167
-1.03073
-1.02963
-1.02874
-1.02838
-1.02871
-1.02985
-1.03187
-1.03482
-1.03881
-1.04423
-1.05238
-1.06384
-1.07748
-1.09232
-1.10996
-1.1312
-1.15241
-1.17086
-1.1847
-1.19948
-1.20527
-1.18958
-1.17225
-1.17173
-1.17128
-1.17104
-1.17118
-1.17187
-1.17325
-1.17542
-1.17849
-1.18262
-1.18814
-1.19566
-1.20541
-1.2169
-1.2297
-1.24426
-1.26055
-1.27678
-1.29141
-1.30394
-1.31428
-1.31622
-1.30287
-1.31272
-1.31262
-1.31263
-1.31281
-1.3133
-1.31426
-1.31582
-1.3181
-1.32122
-1.32533
-1.33067
-1.33753
-1.34602
-1.35591
-1.36694
-1.37909
-1.39206
-1.40478
-1.41601
-1.42521
-1.43139
-1.43162
-1.42317
-1.4529
-1.45317
-1.45354
-1.45403
-1.45477
-1.45591
-1.45759
-1.45993
-1.46304
-1.46706
-1.47213
-1.47841
-1.48593
-1.49456
-1.50409
-1.51435
-1.52498
-1.53526
-1.54433
-1.55152
-1.55598
-1.5563
-1.55147
-1.59265
-1.59324
-1.59392
-1.59464
-1.59556
-1.59684
-1.59859
-1.60095
-1.60402
-1.60791
-1.61271
-1.6185
-1.62527
-1.63291
-1.64124
-1.65006
-1.65902
-1.66762
-1.67526
-1.68137
-1.68529
-1.68626
-1.68388
-1.73194
-1.73279
-1.73371
-1.73463
-1.73569
-1.73707
-1.73887
-1.74122
-1.74423
-1.74797
-1.75252
-1.75791
-1.7641
-1.77099
-1.77842
-1.78617
-1.79396
-1.80141
-1.80809
-1.81355
-1.81733
-1.81897
-1.81831
-1.87079
-1.87182
-1.87293
-1.874
-1.87518
-1.87663
-1.87846
-1.8808
-1.88374
-1.88735
-1.89168
-1.89675
-1.9025
-1.90883
-1.91558
-1.92256
-1.92953
-1.9362
-1.94225
-1.94735
-1.95114
-1.95335
-1.95392
-2.00923
-2.01037
-2.0116
-2.01279
-2.01406
-2.01556
-2.01743
-2.01974
-2.02262
-2.02612
-2.03028
-2.0351
-2.04052
-2.04643
-2.05268
-2.05911
-2.06551
-2.07165
-2.0773
-2.08219
-2.08607
-2.08874
-2.09016
-2.14731
-2.14848
-2.14978
-2.15105
-2.15239
-2.15393
-2.1558
-2.15811
-2.16093
-2.16435
-2.16838
-2.17301
-2.17819
-2.18381
-2.18971
-2.19574
-2.20173
-2.20751
-2.21288
-2.21766
-2.22164
-2.22467
-2.22672
-2.28505
-2.28621
-2.28753
-2.28884
-2.29022
-2.2918
-2.29367
-2.29596
-2.29874
-2.30209
-2.30602
-2.31053
-2.31554
-2.32095
-2.32661
-2.33237
-2.33807
-2.34357
-2.34875
-2.35344
-2.35752
-2.36085
-2.36339
-2.42249
-2.4236
-2.4249
-2.42624
-2.42764
-2.42922
-2.4311
-2.43336
-2.43611
-2.4394
-2.44326
-2.44768
-2.45258
-2.45785
-2.46334
-2.46891
-2.4744
-2.4797
-2.4847
-2.48932
-2.49347
-2.49703
-2.49999
-2.55965
-2.56069
-2.56196
-2.56329
-2.5647
-2.56628
-2.56814
-2.57038
-2.57309
-2.57634
-2.58014
-2.58449
-2.58931
-2.59449
-2.59987
-2.6053
-2.61063
-2.61576
-2.62062
-2.62514
-2.62931
-2.63305
-2.63637
-2.69655
-2.69751
-2.69873
-2.70004
-2.70144
-2.70302
-2.70486
-2.70707
-2.70974
-2.71295
-2.71671
-2.72101
-2.72577
-2.73087
-2.73617
-2.7415
-2.74671
-2.75169
-2.7564
-2.76082
-2.76496
-2.76881
-2.77241
-2.83319
-2.83409
-2.83525
-2.83654
-2.83792
-2.83948
-2.84129
-2.84347
-2.84611
-2.84927
-2.85298
-2.85724
-2.86195
-2.867
-2.87223
-2.87747
-2.88257
-2.88743
-2.892
-2.89629
-2.90037
-2.90429
-2.9081
-2.96961
-2.97045
-2.97156
-2.97281
-2.97418
-2.97571
-2.97749
-2.97962
-2.9822
-2.98531
-2.98898
-2.99319
-2.99786
-3.00286
-3.00803
-3.01318
-3.01817
-3.02289
-3.02731
-3.03147
-3.03548
-3.03942
-3.0434
-3.1058
-3.10659
-3.10766
-3.10889
-3.11023
-3.11173
-3.11347
-3.11555
-3.11807
-3.12111
-3.12472
-3.12886
-3.13348
-3.13842
-3.14352
-3.14858
-3.15344
-3.15801
-3.16227
-3.16628
-3.17018
-3.17412
-3.17825
-3.24177
-3.24254
-3.24358
-3.24477
-3.24609
-3.24756
-3.24926
-3.25129
-3.25374
-3.2567
-3.26021
-3.26428
-3.26882
-3.27368
-3.2787
-3.28365
-3.28838
-3.29277
-3.29683
-3.30065
-3.30442
-3.30833
-3.31258
-3.37754
-3.37828
-3.3793
-3.38047
-3.38177
-3.38321
-3.38487
-3.38684
-3.38921
-3.39208
-3.39549
-3.39945
-3.40389
-3.40865
-3.41355
-3.41838
-3.42295
-3.42715
-3.43099
-3.4346
-3.4382
-3.44203
-3.44633
-3.51312
-3.51384
-3.51483
-3.51599
-3.51726
-3.51867
-3.5203
-3.52222
-3.52452
-3.52728
-3.53058
-3.5344
-3.5387
-3.54333
-3.54809
-3.55276
-3.55715
-3.56114
-3.56474
-3.5681
-3.57149
-3.5752
-3.5795
-3.6485
-3.6492
-3.65018
-3.65132
-3.65256
-3.65395
-3.65554
-3.65741
-3.65964
-3.6623
-3.66547
-3.66914
-3.67326
-3.6777
-3.68228
-3.68675
-3.69093
-3.69468
-3.69803
-3.70113
-3.70427
-3.7078
-3.71204
-3.7837
-3.78438
-3.78535
-3.78646
-3.78768
-3.78904
-3.79059
-3.79241
-3.79457
-3.79713
-3.80015
-3.80365
-3.80757
-3.81178
-3.81611
-3.82033
-3.82424
-3.82772
-3.83077
-3.83358
-3.83645
-3.83977
-3.84386
-3.91872
-3.91939
-3.92034
-3.92142
-3.92261
-3.92394
-3.92545
-3.92722
-3.92929
-3.93175
-3.93463
-3.93793
-3.94162
-3.94557
-3.9496
-3.9535
-3.95707
-3.96021
-3.96292
-3.96539
-3.96795
-3.97099
-3.97487
-4.05358
-4.05424
-4.05516
-4.05621
-4.05736
-4.05865
-4.06012
-4.06182
-4.06382
-4.06616
-4.06889
-4.072
-4.07543
-4.07908
-4.08277
-4.08629
-4.08946
-4.09218
-4.09449
-4.09656
-4.09874
-4.10144
-4.10503
-4.18829
-4.18893
-4.18983
-4.19084
-4.19195
-4.19319
-4.1946
-4.19623
-4.19813
-4.20036
-4.20293
-4.20584
-4.20901
-4.21234
-4.21566
-4.21876
-4.22148
-4.22373
-4.22556
-4.22716
-4.2289
-4.23118
-4.23438
-4.32286
-4.32348
-4.32435
-4.32532
-4.32638
-4.32756
-4.3289
-4.33045
-4.33226
-4.33436
-4.33676
-4.33946
-4.34237
-4.34538
-4.34831
-4.35098
-4.35322
-4.35496
-4.35627
-4.35736
-4.35859
-4.36038
-4.36312
-4.45728
-4.45791
-4.45874
-4.45968
-4.46068
-4.46179
-4.46305
-4.46451
-4.4662
-4.46816
-4.47039
-4.47287
-4.47552
-4.47822
-4.48077
-4.48301
-4.48478
-4.48601
-4.48678
-4.48734
-4.48803
-4.48929
-4.49149
-4.59158
-4.59223
-4.59303
-4.59393
-4.59487
-4.5959
-4.59707
-4.59841
-4.59997
-4.60178
-4.60383
-4.60609
-4.60847
-4.61086
-4.61306
-4.6149
-4.61622
-4.61698
-4.61726
-4.61729
-4.61746
-4.61817
-4.6198
-4.72577
-4.72648
-4.72725
-4.7281
-4.72898
-4.72992
-4.73097
-4.73218
-4.7336
-4.73523
-4.73708
-4.73911
-4.74123
-4.74332
-4.74519
-4.74667
-4.74761
-4.74796
-4.74781
-4.7474
-4.74709
-4.74729
-4.74834
-4.85984
-4.86071
-4.86145
-4.86224
-4.86303
-4.86385
-4.86478
-4.86585
-4.86709
-4.86854
-4.87017
-4.87196
-4.87381
-4.8756
-4.87717
-4.87833
-4.87895
-4.87898
-4.87851
-4.87776
-4.87708
-4.87685
-4.87737
-4.99381
-4.99497
-4.99568
-4.99638
-4.99705
-4.99774
-4.99851
-4.99942
-5.00048
-5.00172
-5.00312
-5.00465
-5.00622
-5.00772
-5.009
-5.00989
-5.01026
-5.01007
-5.00939
-5.00844
-5.00753
-5.00699
-5.00708
-5.12765
-5.12929
-5.12999
-5.13056
-5.13107
-5.13159
-5.1322
-5.13292
-5.13379
-5.13481
-5.13596
-5.13721
-5.1385
-5.1397
-5.1407
-5.14135
-5.14154
-5.14122
-5.14046
-5.13945
-5.13846
-5.13776
-5.13756
-5.26142
-5.26372
-5.26444
-5.26479
-5.26508
-5.26541
-5.26584
-5.26638
-5.26704
-5.26782
-5.26871
-5.26967
-5.27065
-5.27156
-5.27229
-5.27273
-5.27278
-5.27241
-5.27167
-5.27073
-5.26981
-5.26911
-5.26877
-5.39557
-5.39849
-5.3992
-5.39901
-5.39896
-5.3991
-5.39935
-5.39971
-5.40016
-5.4007
-5.40132
-5.40198
-5.40265
-5.40325
-5.40372
-5.40396
-5.40392
-5.40356
-5.40294
-5.40217
-5.40143
-5.40085
-5.40052
-5.53058
-5.53487
-5.53489
-5.53323
-5.53267
-5.53263
-5.53275
-5.53294
-5.53319
-5.53348
-5.53381
-5.53416
-5.5345
-5.5348
-5.535
-5.53507
-5.53496
-5.53467
-5.53421
-5.53368
-5.53316
-5.53275
-5.53248
-5.66152
-5.67412
-5.67142
-5.6682
-5.66736
-5.66719
-5.66715
-5.66715
-5.66717
-5.66717
-5.66717
-5.66716
-5.66713
-5.66708
-5.66699
-5.66685
-5.66666
-5.66641
-5.66611
-5.6658
-5.66549
-5.66521
-5.66495
396.392
398.457
396.524
380.584
318.964
319.625
318.158
310.773
211.83
217.074
221.96
225.587
117.723
126.953
136.253
145.809
45.8586
52.1075
58.3618
66.7931
-0.745885
0.500573
2.74287
6.21675
-0.985323
-0.95613
-0.937303
-0.91979
-1.16559
-1.15517
-1.14782
-1.13376
-1.28211
-1.27037
-1.26089
-1.25205
-1.41171
-1.4043
-1.39672
-1.38894
-1.54495
-1.54033
-1.53515
-1.52953
-1.6803
-1.67765
-1.67447
-1.67088
-1.81674
-1.81552
-1.81384
-1.81178
-1.95373
-1.95349
-1.9529
-1.95189
-2.09089
-2.09129
-2.09142
-2.09114
-2.22801
-2.22879
-2.22936
-2.22958
-2.36509
-2.36612
-2.36696
-2.36749
-2.50209
-2.50336
-2.50441
-2.50513
-2.63882
-2.64034
-2.64163
-2.64257
-2.77514
-2.77687
-2.77843
-2.77965
-2.91099
-2.91289
-2.91472
-2.91628
-3.04644
-3.04847
-3.05055
-3.05248
-3.18145
-3.18362
-3.18596
-3.18824
-3.31594
-3.31827
-3.32086
-3.32348
-3.44982
-3.45229
-3.45511
-3.45805
-3.58305
-3.58561
-3.58861
-3.5918
-3.71558
-3.71818
-3.72128
-3.72465
-3.84735
-3.84993
-3.85308
-3.85655
-3.97826
-3.98081
-3.98396
-3.98747
-4.10827
-4.11078
-4.11392
-4.11743
-4.23743
-4.2399
-4.24301
-4.24648
-4.36593
-4.36834
-4.37141
-4.37479
-4.49402
-4.49633
-4.49933
-4.50258
-4.62199
-4.62416
-4.62702
-4.63008
-4.75013
-4.7521
-4.75473
-4.75751
-4.87874
-4.8804
-4.88268
-4.88507
-5.00801
-5.0093
-5.01113
-5.013
-5.1381
-5.139
-5.14029
-5.14158
-5.26902
-5.26956
-5.27033
-5.27103
-5.40061
-5.40088
-5.40123
-5.40145
-5.53244
-5.53251
-5.53257
-5.53253
-5.6648
-5.66471
-5.66458
-5.66436
306.968
294.102
341.476
330.816
326.771
324.242
323.424
323.774
325.13
326.568
327.652
328.345
328.602
329.415
339.004
546.849
766.429
888.067
975.127
284.105
287.848
329.961
336.84
327.543
323.299
322.896
323.624
325.178
326.718
327.735
328.31
328.547
329.19
336.367
491.248
646.711
750.893
834.08
229.901
258.477
317.24
342.575
329.911
324.271
323.733
324.746
326.062
327.283
328.036
328.457
328.519
326.824
335.655
443.623
550.452
634.492
713.524
162.465
200.703
272.978
345.071
330.115
325.259
325.632
326.628
327.343
327.897
328.35
328.71
328.51
312.389
325.709
393.727
461.33
525.955
598.912
85.3343
124.944
181.913
268.587
321.859
325.652
326.069
327.124
327.545
327.991
328.524
328.186
314.369
282.566
305.73
338.675
374.812
419.046
483.002
18.3979
46.6921
77.699
140.543
228.728
301.195
325.389
326.803
327.177
327.631
327.356
312.664
268.891
274.14
284.634
282.165
292.155
315.405
368.038
-0.993547
-0.571844
8.89873
34.8672
89.5739
170.971
258.791
305.319
326.353
326.498
306.336
260.981
268.048
281.826
258.658
220.428
215.651
221.275
262.804
-1.09497
-1.0269
-1.1292
0.220198
12.5773
40.5023
102.103
183.757
266.446
275.747
264.178
282.14
294.355
272.726
212.362
174.344
168.926
155.725
179.217
-1.23411
-1.18955
-1.10548
-1.23704
-1.59107
0.454879
13.4424
46.6729
119.361
187.366
236.197
266.694
266.627
220.691
176.135
161.048
149.973
131.66
143.414
-1.37555
-1.3521
-1.31867
-1.2757
-1.2238
-1.43163
-1.65577
1.79258
22.246
77.8952
142.473
158.798
139.076
122.811
130.304
137.278
127.232
119.198
117.929
-1.51971
-1.50606
-1.49453
-1.48495
-1.45926
-1.39473
-1.42992
-1.42202
-0.213071
9.44556
34.4464
37.405
20.479
14.7825
45.7397
72.6105
89.6406
98.7373
96.9875
-1.66437
-1.65557
-1.64926
-1.64917
-1.64715
-1.62402
-1.61695
-1.57254
-1.66665
-1.89953
-0.00528784
0.399176
-0.264076
1.24562
3.33128
14.8705
38.644
70.8548
78.7172
-1.80773
-1.80213
-1.79749
-1.79569
-1.79548
-1.7926
-1.78746
-1.74662
-1.82763
-2.16855
-2.16219
-1.40316
-0.986985
-0.819828
-0.624601
-0.161386
4.27119
32.1237
52.6861
-1.94942
-1.94572
-1.94194
-1.93835
-1.93419
-1.92762
-1.91656
-1.88395
-1.89301
-1.94248
-1.76605
-1.5109
-1.20382
-1.00066
-1.00679
-0.86685
-0.210284
3.76932
25.1639
-2.08971
-2.08707
-2.08357
-2.0789
-2.07208
-2.06164
-2.0468
-2.02426
-2.03345
-2.00806
-1.92181
-1.78786
-1.57701
-1.41175
-1.33494
-1.21217
-0.932371
-0.146272
6.91209
-2.22895
-2.22707
-2.22377
-2.21863
-2.21094
-2.20021
-2.18729
-2.17557
-2.19148
-2.19308
-2.15616
-2.08665
-1.99358
-1.89504
-1.76094
-1.56625
-1.33753
-1.28552
5.01874
-2.36747
-2.36635
-2.36358
-2.35878
-2.35168
-2.34269
-2.33414
-2.33136
-2.34681
-2.36698
-2.3718
-2.37312
-2.38305
-2.40325
-2.36307
-2.02798
-1.63499
-1.93903
7.9238
-2.50559
-2.50531
-2.50349
-2.49989
-2.49466
-2.48871
-2.48535
-2.48959
-2.50887
-2.54159
-2.58411
-2.64442
-2.73319
-2.86866
-2.99495
-2.61716
-3.4807
-5.80448
10.9028
-2.64348
-2.64414
-2.64359
-2.64183
-2.6393
-2.63749
-2.63967
-2.65031
-2.67612
-2.72027
-2.78603
-2.88005
-3.00768
-3.18782
-3.41159
-3.41238
-4.38271
-3.10828
8.80046
-2.78113
-2.78285
-2.78379
-2.78417
-2.78472
-2.7871
-2.79428
-2.81044
-2.84076
-2.8897
-2.96132
-3.06043
-3.19527
-3.38041
-3.55852
-4.13041
-5.07067
-0.846978
5.77472
-2.91846
-2.92137
-2.92387
-2.92643
-2.92994
-2.93602
-2.94713
-2.96651
-2.99786
-3.04461
-3.10902
-3.19151
-3.29354
-3.42316
-3.48319
-4.01405
-4.5444
-0.223502
3.42586
-3.05541
-3.05955
-3.06363
-3.0682
-3.07426
-3.08323
-3.09698
-3.11767
-3.14761
-3.18852
-3.23986
-3.29642
-3.3488
-3.38797
-3.2482
-3.5474
-3.90771
-0.163566
3.7173
-3.19191
-3.19725
-3.2028
-3.20913
-3.21722
-3.22827
-3.24358
-3.2645
-3.29226
-3.32742
-3.36785
-3.40616
-3.43027
-3.43351
-3.21058
-3.247
-3.54542
-0.207397
1.0208
-3.32782
-3.33425
-3.34107
-3.34887
-3.35849
-3.37093
-3.38708
-3.4078
-3.43388
-3.46563
-3.50163
-3.53763
-3.56922
-3.60765
-3.55809
-3.44588
-2.96941
-0.308278
1.72718
-3.46297
-3.47032
-3.47819
-3.48709
-3.49777
-3.51102
-3.52753
-3.54795
-3.57302
-3.60333
-3.63874
-3.67827
-3.72174
-3.78414
-3.90824
-3.65889
-2.88051
-0.700257
1.92987
-3.59722
-3.60528
-3.61392
-3.62356
-3.63485
-3.64842
-3.66487
-3.68483
-3.7091
-3.73833
-3.77233
-3.80918
-3.84384
-3.87692
-3.94966
-3.97673
-3.65602
-0.996629
1.81261
-3.73044
-3.73899
-3.74812
-3.75816
-3.76964
-3.78314
-3.79921
-3.81856
-3.84207
-3.87028
-3.90222
-3.93311
-3.95014
-3.93175
-3.84713
-4.0293
-4.23675
-1.52521
1.51478
-3.86256
-3.87136
-3.8807
-3.89081
-3.90213
-3.91522
-3.93071
-3.9495
-3.97278
-4.00144
-4.03479
-4.06813
-4.08867
-4.06366
-3.77489
-3.76325
-4.04968
-1.82252
1.39564
-3.99356
-4.00238
-4.01167
-4.02155
-4.03239
-4.04482
-4.05951
-4.07781
-4.10162
-4.13308
-4.1739
-4.22446
-4.28206
-4.33226
-4.1357
-4.50084
-4.31588
-1.93812
1.52553
-4.12347
-4.13206
-4.14105
-4.15045
-4.16059
-4.17215
-4.18587
-4.20334
-4.22762
-4.2625
-4.31293
-4.38594
-4.49031
-4.63881
-4.95289
-4.88913
-4.24433
-2.50759
1.28564
-4.25235
-4.26048
-4.26893
-4.27765
-4.28688
-4.29733
-4.31006
-4.3263
-4.35005
-4.38583
-4.43984
-4.52177
-4.64509
-4.81527
-5.18966
-5.05299
-4.97489
-3.37442
0.304169
-4.38038
-4.38781
-4.39548
-4.40328
-4.4114
-4.42049
-4.43189
-4.44667
-4.46847
-4.50125
-4.54979
-4.62147
-4.72406
-4.83834
-4.98436
-5.05922
-5.70605
-3.95826
-0.76387
-4.50777
-4.5143
-4.52094
-4.52762
-4.53445
-4.54201
-4.55136
-4.56449
-4.58325
-4.61015
-4.64725
-4.70077
-4.77401
-4.83659
-4.84431
-5.01743
-5.55323
-4.51818
-1.43941
-4.63477
-4.64023
-4.64569
-4.6511
-4.65655
-4.6625
-4.66981
-4.68077
-4.69659
-4.71727
-4.7424
-4.78085
-4.83728
-4.88517
-4.86228
-5.04258
-5.3353
-4.74202
-2.20341
-4.76158
-4.7659
-4.77012
-4.77423
-4.77833
-4.78283
-4.78849
-4.79716
-4.81079
-4.82818
-4.84646
-4.87609
-4.92131
-4.96594
-4.95946
-5.08568
-5.20541
-5.05932
-2.79524
-4.88843
-4.89157
-4.89458
-4.89749
-4.90042
-4.90369
-4.90801
-4.91484
-4.92631
-4.94144
-4.95977
-4.98358
-5.01723
-5.05357
-5.0568
-5.07297
-5.21193
-5.4958
-3.93716
-5.01553
-5.01752
-5.01938
-5.02126
-5.02326
-5.02558
-5.02867
-5.0335
-5.04159
-5.05345
-5.07068
-5.08898
-5.11147
-5.13651
-5.12882
-5.04333
-5.19582
-5.5653
-4.80342
-5.14321
-5.1441
-5.14494
-5.14597
-5.14731
-5.14894
-5.151
-5.1539
-5.15836
-5.16493
-5.17431
-5.18771
-5.20252
-5.21969
-5.21894
-5.13156
-5.24544
-5.4768
-5.07518
-5.27179
-5.27175
-5.2717
-5.27211
-5.27308
-5.2743
-5.2756
-5.27695
-5.27846
-5.28024
-5.28245
-5.28587
-5.29297
-5.30657
-5.32533
-5.30285
-5.4247
-5.48726
-5.38429
-5.40149
-5.40074
-5.39993
-5.40002
-5.40111
-5.40234
-5.40333
-5.4038
-5.40344
-5.40187
-5.39866
-5.39359
-5.38913
-5.39479
-5.41621
-5.40091
-5.70025
-6.00884
-4.91019
-5.53221
-5.53097
-5.52916
-5.5294
-5.53176
-5.53385
-5.53538
-5.53605
-5.53523
-5.532
-5.52486
-5.51171
-5.49285
-5.48548
-5.49237
-5.48742
-5.49643
-5.22462
-15.5156
-5.66385
-5.66246
-5.6594
-5.66053
-5.66425
-5.66717
-5.6696
-5.67124
-5.67133
-5.66867
-5.66129
-5.64481
-5.60996
-5.59098
-5.63313
-5.74963
-6.19158
-8.59326
-28.999
)
;

boundaryField
{
    leftWall
    {
        type            calculated;
        value           nonuniform List<scalar> 
50
(
529.977
470.91
410.631
350.139
289.879
229.701
169.359
108.578
37.7156
-0.290367
-0.311309
-0.482522
-0.613428
-0.751429
-0.891291
-1.03167
-1.17225
-1.31272
-1.4529
-1.59265
-1.73194
-1.87079
-2.00923
-2.14731
-2.28505
-2.42249
-2.55965
-2.69655
-2.83319
-2.96961
-3.1058
-3.24177
-3.37754
-3.51312
-3.6485
-3.7837
-3.91872
-4.05358
-4.18829
-4.32286
-4.45728
-4.59158
-4.72577
-4.85984
-4.99381
-5.12765
-5.26142
-5.39557
-5.53058
-5.66152
)
;
    }
    rightWall
    {
        type            calculated;
        value           nonuniform List<scalar> 
50
(
1801.78
1722.94
1631.35
1526.5
1413.92
1304.38
1202.7
1107.31
975.127
834.08
713.524
598.912
483.002
368.038
262.804
179.217
143.414
117.929
96.9875
78.7172
52.6861
25.1639
6.91209
5.01874
7.9238
10.9028
8.80046
5.77472
3.42586
3.7173
1.0208
1.72718
1.92987
1.81261
1.51478
1.39564
1.52553
1.28564
0.304169
-0.76387
-1.43941
-2.20341
-2.79524
-3.93716
-4.80342
-5.07518
-5.38429
-4.91019
-15.5156
-28.999
)
;
    }
    lowerWall
    {
        type            calculated;
        value           nonuniform List<scalar> 
62
(
559.406
557.895
563.228
572.096
583.108
595.398
608.94
623.944
640.511
658.642
678.216
699.01
720.771
743.233
766.121
789.159
812.028
834.319
855.052
875.607
886.942
891.174
908.903
880.183
819.669
762.022
707.378
655.515
605.252
555.763
507.639
458.962
461.028
459.094
443.168
435.562
435.447
435.264
435.151
434.757
428.538
375.403
300.718
435.591
436.283
435.473
433.747
434.021
422.525
378.317
371.778
379.681
393.697
414.282
438.992
469.651
616.736
1030.44
1557.64
1868.28
1924.88
1828.8
)
;
    }
    atmosphere
    {
        type            calculated;
        value           nonuniform List<scalar> 
46
(
-5.72949
-5.73419
-5.73518
-5.73538
-5.73543
-5.7354
-5.73533
-5.73523
-5.73509
-5.73491
-5.73471
-5.73448
-5.73423
-5.73396
-5.73368
-5.73339
-5.73311
-5.73285
-5.7326
-5.73236
-5.73211
-5.73184
-5.7315
-5.73118
-5.73094
-5.73068
-5.7304
-5.72994
-5.72939
-5.72909
-5.72904
-5.72904
-5.72904
-5.72904
-5.72904
-5.72904
-5.72904
-5.72904
-5.72904
-5.72904
-5.72929
-5.73725
-5.78798
-5.74526
-5.77642
-103.919
)
;
    }
    defaultFaces
    {
        type            empty;
    }
}


// ************************************************************************* //
