/*--------------------------------*- C++ -*----------------------------------*\
| =========                 |                                                 |
| \\      /  F ield         | OpenFOAM: The Open Source CFD Toolbox           |
|  \\    /   O peration     | Version:  v2012                                 |
|   \\  /    A nd           | Website:  www.openfoam.com                      |
|    \\/     M anipulation  |                                                 |
\*---------------------------------------------------------------------------*/
FoamFile
{
    version     2.0;
    format      ascii;
    class       volScalarField;
    location    "0.6";
    object      p_rgh;
}
// * * * * * * * * * * * * * * * * * * * * * * * * * * * * * * * * * * * * * //

dimensions      [1 -1 -2 0 0 0 0];


internalField   nonuniform List<scalar> 
2268
(
559.406
557.895
563.228
572.096
583.108
595.398
608.94
623.944
640.511
658.642
678.216
699.01
720.771
743.233
766.121
789.159
812.028
834.319
855.052
875.607
886.942
891.174
908.903
559.198
556.864
561.49
570.011
580.796
593.088
606.814
622.06
638.888
657.272
677.085
698.11
720.108
742.835
766.034
789.503
813.026
836.273
858.412
878.477
891.405
886.976
907.537
557.778
555.739
560.558
568.468
578.854
590.982
604.737
620.135
637.177
655.804
675.876
697.168
719.453
742.508
766.086
789.979
814.015
837.833
860.617
880.865
896.418
886.936
908.469
556.145
554.572
559.737
567.241
577.224
589.112
602.792
618.248
635.443
654.292
674.634
696.216
718.818
742.241
766.205
790.488
814.898
839.012
862.04
882.314
897.779
896.672
912.963
554.744
553.861
558.855
566.096
575.687
587.292
600.836
616.291
633.601
652.664
673.299
695.192
718.139
741.972
766.36
791.054
815.831
840.179
863.384
883.804
899.547
905.254
920.273
553.424
553.433
557.95
564.867
574.042
585.327
598.701
614.13
631.543
650.832
671.792
694.02
717.342
741.646
766.524
791.702
816.931
841.574
865.036
885.822
902.104
911.227
928.797
551.941
552.85
556.751
563.224
571.951
582.91
596.128
611.556
629.114
648.703
670.091
692.691
716.386
741.249
766.686
792.439
818.242
843.278
867.129
888.476
905.437
917.756
938.126
550.018
551.038
554.192
560.085
568.437
579.199
592.382
607.935
625.82
646.008
668.196
691.303
715.309
740.836
766.885
793.286
819.745
845.279
869.655
891.711
909.347
923.206
948.828
435.591
436.283
435.473
433.747
434.021
422.525
378.317
371.778
379.681
393.697
414.282
438.992
469.651
616.736
1030.44
1557.64
1868.28
1924.88
1828.8
435.535
436.355
434.851
420.912
350.179
329.908
325.218
325.701
327.188
341.193
376.399
406.788
422.38
524.825
891.638
1414
1756.04
1864.34
1810.65
435.411
436.159
433.731
380.681
333.41
325.584
324.969
325.769
326.606
327.54
328.461
329.328
358.331
449.336
761.619
1280.92
1643.97
1792.39
1778.37
435.357
436.141
429.968
357.703
328.279
325.395
324.971
325.621
326.519
327.524
328.462
329.069
327.528
362.372
648.342
1176.54
1550.38
1714.98
1732.33
435.023
435.572
422.216
352.895
326.927
325.209
324.899
325.437
326.378
327.397
328.3
328.977
328.846
334.954
546.3
1096.87
1471.98
1636.13
1677.73
482.259
459.418
412.412
348.108
326.848
325.055
324.756
325.21
326.231
327.318
328.252
328.919
329.025
329.28
454.448
1043.08
1408.95
1564.49
1600.57
723.534
511.333
387.529
339.483
326.5
324.95
324.562
324.951
326.068
327.244
328.227
328.899
329.047
330.157
426.965
1019.59
1361.49
1505.99
1541.3
742.151
513.949
365.306
334.418
326.608
324.922
324.342
324.68
325.887
327.164
328.195
328.888
329.091
330.363
503.932
1023.16
1328.06
1462.63
1497.99
365.02
357.834
362.212
379.751
407.806
444.812
487.447
533.031
578.8
622.037
660.041
688.629
713.896
739.998
767.176
794.766
822.387
848.798
874.181
897.627
916.349
928.535
935.429
0.368294
0.450287
0.569435
6.73815
19.6872
36.4762
60.8206
96.642
148.25
222.049
327.281
456.395
577.581
678.951
757.587
796.431
827.609
855.196
882.215
909.155
931.411
951.369
971.756
0.472546
0.464929
0.475603
0.488912
0.490404
0.495985
0.496775
0.4884
0.471092
0.463124
0.544825
9.5846
54.2223
139.061
280.262
498.719
767.336
864.275
891.699
921.236
945.688
966.756
986.723
0.426527
0.434788
0.455646
0.461283
0.461052
0.458513
0.454254
0.44901
0.444705
0.446398
0.461864
0.480544
0.445697
0.362443
0.350428
11.8863
60.6419
201.459
474.121
839.258
942.784
974.027
1011.55
0.420817
0.423801
0.433109
0.437968
0.439998
0.440498
0.43955
0.437437
0.435335
0.432383
0.430644
0.414407
0.387384
0.37039
0.37604
0.3717
0.300138
0.124123
2.98755
33.3627
137.131
340.983
661.428
0.408011
0.41
0.414445
0.417517
0.419352
0.42001
0.419372
0.417519
0.414912
0.412232
0.408423
0.397537
0.379037
0.361288
0.34693
0.323588
0.294799
0.284222
0.272704
0.212745
0.0730875
-0.0499268
-0.0282273
0.393343
0.394723
0.396924
0.398779
0.399848
0.399995
0.399121
0.397224
0.394415
0.390742
0.386128
0.377395
0.363364
0.346898
0.330014
0.308388
0.28026
0.248298
0.237813
0.235835
0.230249
0.229421
0.249519
0.378162
0.379103
0.380194
0.381083
0.381446
0.381115
0.379971
0.377945
0.374995
0.370998
0.365582
0.357428
0.345965
0.332319
0.317484
0.299844
0.278604
0.257405
0.238962
0.225129
0.210348
0.204557
0.220245
0.362771
0.363291
0.36374
0.363987
0.363842
0.363147
0.36177
0.359599
0.356532
0.352401
0.346878
0.339356
0.329606
0.318115
0.30532
0.290762
0.274467
0.258237
0.24361
0.231079
0.220745
0.218801
0.232151
0.347502
0.347596
0.34759
0.347409
0.346913
0.345956
0.344399
0.342121
0.339
0.334884
0.329547
0.322684
0.314193
0.304304
0.293276
0.281125
0.268158
0.25544
0.244208
0.235011
0.228828
0.228598
0.237049
0.332514
0.332247
0.331872
0.331386
0.330645
0.329502
0.327824
0.325486
0.32237
0.318351
0.31328
0.307002
0.299479
0.29085
0.281321
0.271065
0.260437
0.250152
0.241083
0.233892
0.229429
0.22911
0.233944
0.317958
0.317369
0.316688
0.315967
0.315044
0.31377
0.312014
0.309655
0.306584
0.302698
0.297899
0.292112
0.285339
0.277696
0.269363
0.260551
0.251588
0.242983
0.235343
0.229239
0.22532
0.224351
0.226729
0.30386
0.303014
0.302087
0.301173
0.300108
0.298736
0.296931
0.294577
0.291572
0.287828
0.283279
0.277892
0.271699
0.264807
0.257383
0.249636
0.241846
0.234393
0.227714
0.222249
0.218473
0.216836
0.217488
0.290205
0.289177
0.288065
0.286997
0.285817
0.28437
0.282532
0.280196
0.277258
0.273647
0.269313
0.264248
0.258497
0.252169
0.24542
0.23844
0.231468
0.224794
0.218742
0.213646
0.209854
0.207647
0.207078
0.276956
0.275824
0.274588
0.273403
0.272132
0.270627
0.268763
0.266454
0.263573
0.260073
0.255912
0.251094
0.245675
0.239764
0.233509
0.227083
0.220684
0.214538
0.208892
0.203999
0.200118
0.197451
0.196026
0.264074
0.262905
0.261603
0.260337
0.259
0.257454
0.255581
0.253278
0.250451
0.247038
0.243009
0.238373
0.233193
0.22758
0.221677
0.215646
0.209655
0.203879
0.198506
0.193727
0.189742
0.18671
0.184665
0.251525
0.250371
0.249049
0.247735
0.246355
0.244783
0.242907
0.240621
0.237836
0.23449
0.230556
0.226049
0.221035
0.215626
0.209967
0.204211
0.19851
0.193005
0.187833
0.183135
0.179056
0.17573
0.173193
0.23928
0.238176
0.236869
0.235537
0.234133
0.23255
0.230678
0.228413
0.225666
0.222373
0.218511
0.214097
0.209197
0.203925
0.19843
0.192865
0.187373
0.182075
0.177071
0.17245
0.168307
0.164743
0.161782
0.227317
0.226281
0.225012
0.223684
0.222273
0.22069
0.21883
0.21659
0.213877
0.210631
0.206824
0.202477
0.197658
0.192483
0.187102
0.181672
0.176337
0.171206
0.166353
0.161825
0.157662
0.15392
0.150601
0.215617
0.214654
0.213436
0.212125
0.210722
0.209148
0.207307
0.205095
0.202419
0.199214
0.195453
0.191157
0.186397
0.181292
0.175994
0.170667
0.165456
0.160469
0.15576
0.151342
0.147203
0.14335
0.139752
0.204164
0.203269
0.202105
0.200821
0.199434
0.197878
0.196064
0.193887
0.191252
0.188091
0.184373
0.18012
0.175406
0.170354
0.165124
0.159884
0.154784
0.149928
0.145361
0.141064
0.136983
0.133071
0.129262
0.192946
0.192106
0.190992
0.18974
0.188375
0.186844
0.185063
0.18293
0.180347
0.177239
0.173571
0.169364
0.164694
0.159693
0.154526
0.149371
0.144382
0.139661
0.135241
0.131077
0.127073
0.123136
0.119156
0.18195
0.181154
0.180082
0.178859
0.177519
0.176017
0.174275
0.172194
0.169674
0.166633
0.163031
0.158884
0.15427
0.149326
0.144229
0.139167
0.134302
0.129734
0.12548
0.12147
0.117565
0.113625
0.109497
0.171167
0.170404
0.169364
0.168167
0.166852
0.16538
0.163678
0.161654
0.159205
0.156246
0.152729
0.148664
0.144126
0.139258
0.134246
0.129292
0.124566
0.120172
0.116113
0.112289
0.108517
0.104608
0.100365
0.160591
0.159852
0.158836
0.157661
0.15637
0.154926
0.153264
0.151295
0.148921
0.146054
0.142641
0.138683
0.13425
0.129484
0.124581
0.119753
0.115185
0.110983
0.107144
0.103539
0.0999405
0.0961085
0.0918042
0.150214
0.149495
0.148497
0.147342
0.146074
0.144656
0.14303
0.141113
0.138814
0.136046
0.132752
0.128926
0.12463
0.120004
0.115243
0.11057
0.10618
0.102189
0.0985869
0.0952258
0.0918387
0.0881339
0.0838307
0.140028
0.139327
0.138344
0.137209
0.135965
0.134574
0.132981
0.131114
0.128888
0.126223
0.123059
0.119388
0.115265
0.11082
0.106248
0.101773
0.0975975
0.0938416
0.0904963
0.0873986
0.0842518
0.0807209
0.076488
0.130024
0.12934
0.128373
0.127261
0.126043
0.124681
0.123124
0.121307
0.119154
0.116592
0.113569
0.110072
0.106153
0.101936
0.097608
0.0933889
0.08948
0.0860033
0.0829477
0.0801405
0.0772646
0.0739531
0.0698596
0.120192
0.119524
0.118576
0.117492
0.116306
0.114978
0.113462
0.111698
0.10962
0.107165
0.104288
0.10098
0.0972929
0.0933447
0.0893154
0.0854163
0.0818412
0.0787058
0.0759929
0.0735215
0.0709607
0.0679229
0.0640417
0.110524
0.10987
0.108947
0.107895
0.106746
0.10546
0.103992
0.102288
0.100292
0.0979487
0.0952221
0.092113
0.0886757
0.0850276
0.0813423
0.0778217
0.0746477
0.0719238
0.069621
0.0675479
0.0653635
0.0626671
0.0590809
0.101011
0.100371
0.0994761
0.0984599
0.0973532
0.0961176
0.0947077
0.093075
0.0911683
0.0889426
0.0863722
0.0834676
0.0802901
0.0769596
0.0736468
0.0705454
0.0678251
0.0655738
0.0637467
0.0621392
0.0604002
0.0581209
0.0549185
0.0916421
0.0910156
0.0901522
0.0891733
0.0881142
0.0869369
0.0855965
0.0840463
0.0822404
0.0801415
0.077734
0.0750383
0.072124
0.0691158
0.0661845
0.063519
0.0612783
0.0595358
0.0582296
0.0571399
0.0559064
0.0541141
0.0513798
0.0824083
0.0817869
0.0809559
0.0800154
0.079009
0.0778993
0.0766404
0.0751864
0.073495
0.0715354
0.0693003
0.0668186
0.0641676
0.0614769
0.0589193
0.0566812
0.0549152
0.0536827
0.0529073
0.0523556
0.0516597
0.0504021
0.0482032
0.0733018
0.0726586
0.0718597
0.0709606
0.0700138
0.0689827
0.067819
0.0664765
0.0649156
0.0631107
0.0610605
0.0588003
0.0564124
0.0540299
0.0518265
0.0499878
0.0486624
0.0479047
0.0476287
0.0475921
0.0474252
0.0467135
0.0450889
0.0643157
0.063598
0.0628289
0.0619785
0.0611025
0.0601641
0.0591112
0.0578972
0.0564844
0.0548512
0.0530009
0.0509723
0.0488497
0.0467657
0.0448926
0.0434132
0.042473
0.0421234
0.042275
0.0426854
0.0429914
0.0427916
0.041741
0.0554367
0.0545626
0.0538224
0.0530348
0.0522477
0.0514208
0.0504972
0.0494294
0.0481826
0.046739
0.0451049
0.0433204
0.041468
0.0396762
0.0381103
0.0369462
0.0363241
0.036294
0.03677
0.0375189
0.038196
0.0384265
0.0379026
0.0466626
0.0455013
0.0447884
0.04409
0.0434214
0.0427309
0.0419569
0.0410529
0.0399891
0.0387519
0.0373504
0.0358238
0.0342501
0.0327485
0.0314717
0.0305818
0.0302091
0.0304012
0.0310802
0.0320321
0.0329431
0.0334802
0.033387
0.0380173
0.0363708
0.0356712
0.0351039
0.034596
0.0340717
0.033467
0.032742
0.0318752
0.0308595
0.0297062
0.0284527
0.0271691
0.0259605
0.0249606
0.0243109
0.0241255
0.0244467
0.0252068
0.0262182
0.0272092
0.027902
0.0281035
0.0294347
0.0271434
0.02642
0.0260682
0.0257786
0.0254457
0.0250218
0.0244839
0.0238234
0.0230412
0.0221511
0.021186
0.020205
0.0192949
0.0185647
0.0181294
0.0180811
0.0184527
0.0191865
0.0201264
0.0210511
0.021747
0.0220855
0.0204806
0.0175647
0.0168521
0.0170471
0.0170928
0.0169564
0.0167016
0.0163448
0.0158922
0.0153516
0.0147367
0.0140737
0.0134067
0.0128
0.0123335
0.0120905
0.0121371
0.0124943
0.0131157
0.0138817
0.0146278
0.0152046
0.0155345
0.0106636
0.00637514
0.00635547
0.00801683
0.00858022
0.00861595
0.00849772
0.00830575
0.00805812
0.00776532
0.00743737
0.00708981
0.00674838
0.00645076
0.00624389
0.00617632
0.00628562
0.00658203
0.0070348
0.00756929
0.00808506
0.00849556
0.00876993
0.00492466
-0.00767262
-0.00497597
-0.00175471
-0.000921086
-0.000745006
-0.000709428
-0.000712132
-0.000722697
-0.000729433
-0.00072825
-0.00071604
-0.000687521
-0.000634108
-0.000544528
-0.000407218
-0.000213911
3.57175e-05
0.000330354
0.000646885
0.000956357
0.00123764
0.00149105
929.632
931.697
929.764
913.939
977.625
978.285
976.677
969.389
995.685
1000.92
1005.79
1009.42
1026.76
1035.98
1045.26
1054.82
890.999
943.654
968.591
999.189
0.413554
21.3973
63.3251
120.303
0.299311
0.328504
0.34733
0.364842
0.244234
0.254658
0.261998
0.276057
0.252918
0.264655
0.274132
0.282978
0.248509
0.255927
0.263509
0.271292
0.240468
0.24508
0.250273
0.255895
0.230308
0.232955
0.236141
0.239724
0.219059
0.220285
0.221958
0.224023
0.207262
0.207501
0.208095
0.209103
0.195304
0.194903
0.194774
0.195051
0.183378
0.182598
0.182022
0.181803
0.171491
0.17046
0.169619
0.169094
0.159687
0.158419
0.157365
0.156642
0.148145
0.146628
0.145335
0.144403
0.137028
0.135292
0.133733
0.132516
0.126363
0.124467
0.122641
0.121078
0.116113
0.114084
0.112004
0.110077
0.106298
0.104126
0.101792
0.0995075
0.0970036
0.0946755
0.0920858
0.0894614
0.088314
0.0858463
0.0830241
0.08009
0.0802789
0.07772
0.0747197
0.0715303
0.0729418
0.0703495
0.0672438
0.0638735
0.0663717
0.0637898
0.0606423
0.0571687
0.0606564
0.0581067
0.0549552
0.0514405
0.0558409
0.0533306
0.0501926
0.0466821
0.0518683
0.0494033
0.0462906
0.0428226
0.0485664
0.0461601
0.0430906
0.0397074
0.0456761
0.0433577
0.0403638
0.0371151
0.0429015
0.0407226
0.0378626
0.0348094
0.0399468
0.0379834
0.03535
0.0325754
0.0365403
0.0348785
0.0325917
0.0302065
0.0324593
0.0311678
0.0293435
0.027466
0.0275645
0.0266681
0.0253757
0.0240856
0.0218381
0.021303
0.0205323
0.0198251
0.015439
0.0151729
0.0148281
0.0146026
0.0088054
0.00873874
0.0086744
0.00872077
0.00163887
0.00172999
0.00186496
0.00207965
840.426
591.231
350.427
333.261
328.23
324.82
323.959
324.325
325.664
327.102
328.186
328.879
329.136
329.951
630.015
1073.43
1299.46
1421.1
1447.33
942.754
857.519
360.852
339.575
330.761
324.944
323.661
324.288
325.838
327.378
328.394
328.969
329.206
329.858
810.865
1149.21
1304.83
1409.02
1426.75
1013.74
1042.32
477.306
344.682
331.414
325.586
324.742
325.562
326.85
328.068
328.82
329.242
329.303
441.114
1036.53
1225.9
1333.61
1417.7
1424.18
1071.49
1109.73
1092.61
404.537
331.709
326.37
326.605
327.555
328.256
328.807
329.26
329.62
329.423
811.241
1215.04
1293.97
1350.04
1434.11
1410.28
1083.42
1159.14
1216.04
1110.07
513.092
327.071
327.165
328.169
328.582
329.027
329.56
329.221
535.329
1172.72
1294.18
1179.83
1288.94
1448.61
1402.12
391.148
1024.07
1236.95
1298.43
1291.45
782.162
326.787
327.976
328.338
328.793
328.517
438.262
1201.57
1273.33
1099.42
1088.72
1312.85
1466.45
1397.81
0.291086
7.17435
308.589
981.391
1285.55
1366.95
1168.36
700.712
329.49
330.583
562.357
1313.1
1343.44
1069.52
1049.01
1125.92
1324.62
1489.63
1402.88
0.314851
0.382926
0.28063
72.5049
530.585
1051.94
1209.62
1291.27
1115.23
1164.93
1379.68
1422.31
1041.86
1019.43
1281.83
891.357
562.523
1075.3
1440.63
0.300916
0.345471
0.429548
0.297867
0.202185
103.87
547.132
916.575
1267.97
1431.02
1479.85
1352.62
1422.73
1391.71
1151.66
381.874
370.799
374.027
1516.84
0.284687
0.308121
0.341549
0.38452
0.438282
0.306555
2.00825
89.7247
418.042
923.191
1260.02
1376.11
1387.4
1122.36
452.233
398.574
396.349
383.718
678.957
0.265716
0.279359
0.29088
0.300466
0.326181
0.392732
0.396504
0.791321
4.54019
120.942
700.121
971.675
414.686
121.706
404.882
620.846
640.025
457.905
313.257
0.246234
0.255035
0.261343
0.261438
0.263462
0.286636
0.297182
0.382757
0.702048
33.542
115.314
106.764
2.07244
3.48029
76.0958
405.846
629.921
662.132
469.75
0.228072
0.233672
0.238312
0.240112
0.240322
0.243204
0.248473
0.292397
2.40495
18.254
0.329243
0.861856
1.08809
1.24061
1.429
1.96528
104.167
625.399
774.104
0.211577
0.215276
0.219061
0.222643
0.226806
0.233377
0.244441
0.311776
2.44154
1.88238
0.444619
0.671573
0.964458
1.1691
1.16857
1.31513
2.04611
14.7083
789.831
0.196477
0.199116
0.202623
0.207286
0.214113
0.22455
0.239401
0.336222
1.10337
0.307486
0.371134
0.501923
0.713523
0.882272
0.960525
1.08877
1.45277
15.5009
223.014
0.182432
0.184314
0.187614
0.192754
0.200442
0.211172
0.22486
0.294368
0.228843
0.223291
0.256206
0.325432
0.421122
0.520779
0.671225
1.3125
2.69521
44.693
107.518
0.169105
0.170227
0.172998
0.177798
0.184902
0.193885
0.20303
0.217432
0.191021
0.170403
0.164934
0.163553
0.154178
0.134928
0.711904
6.9467
5.22043
140.048
541.288
0.15618
0.156462
0.158284
0.161883
0.167112
0.173066
0.176586
0.172275
0.15311
0.120305
0.0776939
0.0173762
-0.0713536
-0.2064
0.257547
7.88543
132.567
455.548
570.612
0.143486
0.142829
0.143375
0.145144
0.147672
0.149483
0.147299
0.136672
0.110873
0.0667204
0.0009462
-0.0930697
-0.220624
-0.397316
-0.0160819
-0.544378
495.482
583.666
595.059
0.13103
0.129311
0.128377
0.127999
0.127445
0.125065
0.117881
0.101722
0.0714115
0.0224723
-0.0491553
-0.14825
-0.283061
-0.468191
-0.433135
-1.17572
570.618
611.55
618.134
0.118893
0.115992
0.113484
0.11093
0.10742
0.101342
0.0902272
0.0708467
0.0394979
-0.00725346
-0.0716603
-0.154146
-0.256179
-0.379144
-0.445618
-0.976315
164.991
639.327
641.905
0.107138
0.102999
0.0989234
0.0943492
0.088298
0.0793259
0.0655779
0.0448798
0.0149432
-0.0259667
-0.0772988
-0.133867
-0.186223
-0.217125
-0.0855106
-0.384633
77.6981
413.747
622.039
0.0958398
0.0904955
0.0849538
0.0786148
0.0705277
0.0595138
0.044201
0.0232529
-0.00451377
-0.0396737
-0.0800984
-0.118409
-0.142521
-0.139364
0.0771835
18.8492
249.367
234.296
235.128
0.085126
0.0786932
0.0718682
0.0640764
0.0544574
0.0421057
0.0259509
0.00515854
-0.0209376
-0.0526835
-0.0886848
-0.124687
-0.156278
-0.193302
-0.145137
57.0308
338.804
244.912
245.017
0.0751632
0.0678148
0.0599479
0.0510535
0.0403803
0.0272132
0.010707
-0.00971575
-0.0348698
-0.0651907
-0.100601
-0.140126
-0.183603
-0.246004
-0.370102
29.0063
360.957
365.582
256.752
0.0661107
0.0580507
0.0494141
0.0397806
0.0285015
0.0149637
-0.00144261
-0.021403
-0.0457331
-0.0749974
-0.108997
-0.145848
-0.180504
-0.213588
-0.286323
-0.313387
345.164
378.247
271.762
0.0580842
0.0495359
0.0404095
0.0303825
0.018908
0.00539957
-0.0106122
-0.0299354
-0.0535029
-0.0817509
-0.113685
-0.144582
-0.161552
-0.142164
-0.0585894
-0.240746
197.105
390.679
349.855
0.0511548
0.0423549
0.0330152
0.0229165
0.0116115
-0.0015022
-0.0169844
-0.0357621
-0.0590459
-0.087721
-0.121067
-0.154411
-0.171423
-0.146824
0.138858
8.74623
209.831
336.11
404.788
0.0453493
0.036536
0.0272477
0.0173706
0.00653406
-0.00590541
-0.020598
-0.0388901
-0.0627021
-0.0941618
-0.134989
-0.184963
-0.238789
-0.290255
-0.0967115
190.459
410.029
351.26
424.09
0.040643
0.0320527
0.0230623
0.013659
0.00352347
-0.00803908
-0.0139699
-0.0392313
-0.06351
-0.0983895
-0.14882
-0.218508
-0.321705
-0.472329
-0.788659
282.154
428.664
425.535
444.286
0.036951
0.0288214
0.0203702
0.0116568
0.00242684
-0.00802946
0.0145749
0.0186381
0.00356831
-0.0508412
-0.129053
-0.227834
-0.352038
-0.524993
-0.900166
35.7751
450.793
452.945
456.623
0.0341172
0.0266833
0.0190194
0.0112184
0.00309979
-0.0059968
0.00596497
0.0754381
0.054439
0.0201164
-0.0691639
-0.204363
-0.308853
-0.423382
-0.569604
-0.644445
394.25
464.861
468.874
0.0319217
0.0253957
0.0187485
0.012073
0.00523823
-0.00231424
-0.0113396
0.0867012
0.0679322
0.00111056
-0.0911557
-0.160322
-0.233675
-0.296189
-0.304201
-0.477435
332.503
350.509
366.31
0.0301213
0.0246608
0.0191927
0.0137903
0.00833622
0.00238651
-0.00492133
0.0118741
0.0451945
-0.000976641
-0.0766929
-0.115316
-0.171783
-0.219712
-0.196839
-0.377342
205.253
211.405
217.82
0.0284963
0.0241853
0.0199591
0.0158511
0.0117467
0.00725379
0.00163271
-0.00703118
-0.0203507
0.0174262
0.294204
0.687222
0.594123
0.210606
-0.14831
-0.295063
72.8692
306.083
222.889
0.0268465
0.0237089
0.0206994
0.0177871
0.0148605
0.0116042
0.00739287
0.000502355
-0.011009
-0.0260389
0.907026
0.989488
0.96779
0.937311
0.414868
-0.154982
8.03505
314.314
243.784
0.0249363
0.0229545
0.0210859
0.0192056
0.0172092
0.0149216
0.0119267
0.00703271
-0.00110985
-0.0129769
0.120554
0.864916
1.032
1.00696
0.878198
0.0422914
-0.154224
235.888
234.905
0.0224564
0.0215629
0.0207282
0.0196898
0.0183516
0.0167307
0.0146873
0.0118085
0.00732177
0.000740372
-0.00863892
0.0313691
0.407781
0.63417
0.335895
0.0469001
-0.079688
100.687
239.001
0.0190672
0.019112
0.0191617
0.0187451
0.0177781
0.0165589
0.0152608
0.0139348
0.012414
0.0106204
0.00841369
0.00503313
-0.00196085
-0.0134833
-0.0339623
-0.0108055
-0.133833
18.6761
244.753
0.0145587
0.0153111
0.0161234
0.0160339
0.0149401
0.0137113
0.0127275
0.012259
0.0126178
0.0141849
0.0173965
0.0224621
0.0269245
0.021264
-0.000143761
0.015147
-0.284191
103.528
251.117
0.00904067
0.0102741
0.0120915
0.0118475
0.00948691
0.0073991
0.00586562
0.00520079
0.00601458
0.00924432
0.0163877
0.029542
0.0483961
0.0557671
0.048898
0.053836
0.0448205
57.6188
246.443
0.00259595
0.00398576
0.0070472
0.00591301
0.00219443
-0.000726137
-0.00315497
-0.00479418
-0.00488267
-0.00223173
0.00515591
0.0216374
0.0564789
0.0754709
0.0333326
-0.0831798
-0.525141
-2.92682
73.7847
)
;

boundaryField
{
    leftWall
    {
        type            fixedFluxPressure;
        gradient        uniform 0;
        value           nonuniform List<scalar> 
50
(
559.406
559.198
557.778
556.145
554.744
553.424
551.941
550.018
365.02
0.368294
0.472546
0.426527
0.420817
0.408011
0.393343
0.378162
0.362771
0.347502
0.332514
0.317958
0.30386
0.290205
0.276956
0.264074
0.251525
0.23928
0.227317
0.215617
0.204164
0.192946
0.18195
0.171167
0.160591
0.150214
0.140028
0.130024
0.120192
0.110524
0.101011
0.0916421
0.0824083
0.0733018
0.0643157
0.0554367
0.0466626
0.0380173
0.0294347
0.0204806
0.0106636
0.00492466
)
;
    }
    rightWall
    {
        type            fixedFluxPressure;
        gradient        uniform 0;
        value           nonuniform List<scalar> 
50
(
1828.8
1810.65
1778.37
1732.33
1677.73
1600.57
1541.3
1497.99
1447.33
1426.75
1424.18
1410.28
1402.12
1397.81
1402.88
1440.63
1516.84
678.957
313.257
469.75
774.104
789.831
223.014
107.518
541.288
570.612
595.059
618.134
641.905
622.039
235.128
245.017
256.752
271.762
349.855
404.788
424.09
444.286
456.623
468.874
366.31
217.82
222.889
243.784
234.905
239.001
244.753
251.117
246.443
73.7847
)
;
    }
    lowerWall
    {
        type            fixedFluxPressure;
        gradient        uniform 0;
        value           nonuniform List<scalar> 
62
(
559.406
557.895
563.228
572.096
583.108
595.398
608.94
623.944
640.511
658.642
678.216
699.01
720.771
743.233
766.121
789.159
812.028
834.319
855.052
875.607
886.942
891.174
908.903
908.903
907.537
908.469
912.963
920.273
928.797
938.126
948.828
929.632
931.697
929.764
913.939
435.591
435.535
435.411
435.357
435.023
482.259
723.534
742.151
435.591
436.283
435.473
433.747
434.021
422.525
378.317
371.778
379.681
393.697
414.282
438.992
469.651
616.736
1030.44
1557.64
1868.28
1924.88
1828.8
)
;
    }
    atmosphere
    {
        type            totalPressure;
        rho             rho;
        psi             none;
        gamma           1;
        p0              uniform 0;
        value           nonuniform List<scalar> 
46
(
-0.000453648
-0.0051525
-0.0061384
-0.00634349
-0.00638861
-0.0063628
-0.00629317
-0.00618718
-0.00604696
-0.005874
-0.00567048
-0.00543972
-0.00518621
-0.00491569
-0.00463509
-0.00435217
-0.00407464
-0.00380873
-0.00355697
-0.00331532
-0.00307031
-0.00279728
-0.00246252
-0.00213756
-0.0019032
-0.00163905
-0.00135544
-0.000898132
-0.000353806
-5.20849e-05
0
0
0
0
0
0
0
0
0
0
-0.000250003
-0.00821329
-0.0589439
-0.0162194
-0.0473759
0
)
;
    }
    defaultFaces
    {
        type            empty;
    }
}


// ************************************************************************* //
