/*--------------------------------*- C++ -*----------------------------------*\
| =========                 |                                                 |
| \\      /  F ield         | OpenFOAM: The Open Source CFD Toolbox           |
|  \\    /   O peration     | Version:  v2012                                 |
|   \\  /    A nd           | Website:  www.openfoam.com                      |
|    \\/     M anipulation  |                                                 |
\*---------------------------------------------------------------------------*/
FoamFile
{
    version     2.0;
    format      ascii;
    class       surfaceScalarField;
    location    "0.6";
    object      phi;
}
// * * * * * * * * * * * * * * * * * * * * * * * * * * * * * * * * * * * * * //

dimensions      [0 3 -1 0 0 0 0];
oriented        oriented;


internalField   nonuniform List<scalar> 
4432
(
-4.91032e-06
4.91032e-06
-7.17882e-06
2.26849e-06
-6.3915e-06
-7.87323e-07
-4.47266e-06
-1.91884e-06
-2.38369e-06
-2.08897e-06
-4.88893e-07
-1.8948e-06
1.11664e-06
-1.60553e-06
2.41749e-06
-1.30085e-06
3.46023e-06
-1.04273e-06
4.30208e-06
-8.41857e-07
4.98965e-06
-6.87565e-07
5.54442e-06
-5.54761e-07
5.96887e-06
-4.24462e-07
6.24475e-06
-2.75868e-07
6.28904e-06
-4.42938e-08
5.92062e-06
3.68425e-07
4.8887e-06
1.03192e-06
2.89763e-06
1.99107e-06
-1.73515e-07
3.07115e-06
-4.68032e-06
4.5068e-06
-9.0066e-06
4.32629e-06
-9.50045e-06
4.93847e-07
-9.50045e-06
-3.88938e-06
8.7997e-06
-4.3411e-06
2.72021e-06
-3.31262e-06
-1.81581e-06
-1.70669e-06
-3.52477e-06
-4.4435e-09
-3.79121e-06
1.55659e-06
-3.45583e-06
2.87314e-06
-2.92207e-06
3.94262e-06
-2.37033e-06
4.79167e-06
-1.89178e-06
5.46336e-06
-1.51354e-06
5.99431e-06
-1.21852e-06
6.399e-06
-9.59438e-07
6.67696e-06
-7.02427e-07
6.8205e-06
-4.19402e-07
6.8086e-06
-3.23953e-08
6.58019e-06
5.96837e-07
5.97804e-06
1.63407e-06
4.76127e-06
3.20784e-06
2.64518e-06
5.18725e-06
-7.7244e-08
7.22923e-06
-3.19125e-06
7.4403e-06
-4.5289e-06
1.83149e-06
-1.40293e-05
-2.18487e-06
1.09846e-05
-1.92003e-06
2.45537e-06
-9.28684e-07
-2.80715e-06
4.05957e-07
-4.85941e-06
1.7832e-06
-5.16845e-06
3.02628e-06
-4.69891e-06
4.06683e-06
-3.96261e-06
4.90095e-06
-3.20446e-06
5.55081e-06
-2.54164e-06
6.0517e-06
-2.01443e-06
6.43313e-06
-1.59995e-06
6.70276e-06
-1.22907e-06
6.85706e-06
-8.56729e-07
6.89511e-06
-4.57445e-07
6.8177e-06
4.50087e-08
6.6046e-06
8.09942e-07
6.19336e-06
2.04532e-06
5.47723e-06
3.92397e-06
4.33982e-06
6.32466e-06
2.8696e-06
8.69945e-06
1.10269e-06
9.2072e-06
1.21173e-08
2.92207e-06
-1.40172e-05
-4.78868e-07
1.14634e-05
2.6988e-07
1.70662e-06
1.2284e-06
-3.76566e-06
2.33595e-06
-5.96697e-06
3.39613e-06
-6.22863e-06
4.31829e-06
-5.62107e-06
5.07396e-06
-4.71828e-06
5.66471e-06
-3.79522e-06
6.1082e-06
-2.98512e-06
6.43374e-06
-2.33996e-06
6.66562e-06
-1.83185e-06
6.80435e-06
-1.36778e-06
6.84239e-06
-8.94783e-07
6.78701e-06
-4.02052e-07
6.65651e-06
1.75496e-07
6.46265e-06
1.00381e-06
6.1968e-06
2.31117e-06
5.82655e-06
4.29421e-06
5.33605e-06
6.81517e-06
4.7839e-06
9.2516e-06
4.0274e-06
9.9637e-06
2.60371e-06
4.34577e-06
-1.14135e-05
1.28419e-06
1.01793e-05
2.29504e-06
6.95781e-07
3.29567e-06
-4.7663e-06
4.16467e-06
-6.83596e-06
4.89099e-06
-6.95495e-06
5.4825e-06
-6.21258e-06
5.94797e-06
-5.18374e-06
6.29182e-06
-4.13907e-06
6.52519e-06
-3.21849e-06
6.67227e-06
-2.48704e-06
6.75424e-06
-1.91383e-06
6.7641e-06
-1.37763e-06
6.68935e-06
-8.20036e-07
6.54554e-06
-2.58237e-07
6.36825e-06
3.5279e-07
6.19608e-06
1.17597e-06
6.05503e-06
2.45223e-06
5.9489e-06
4.40034e-06
5.9106e-06
6.85348e-06
5.96548e-06
9.19672e-06
5.83687e-06
1.00923e-05
4.47015e-06
5.7125e-06
-6.94337e-06
2.75033e-06
7.42892e-06
4.28521e-06
-8.39097e-07
5.28605e-06
-5.76714e-06
5.87474e-06
-7.42465e-06
6.24031e-06
-7.32052e-06
6.49677e-06
-6.46905e-06
6.67765e-06
-5.36462e-06
6.78113e-06
-4.24254e-06
6.80804e-06
-3.24541e-06
6.77829e-06
-2.45728e-06
6.71291e-06
-1.84845e-06
6.5973e-06
-1.26201e-06
6.41265e-06
-6.35391e-07
6.18324e-06
-2.88271e-08
5.96151e-06
5.74521e-07
5.80963e-06
1.32785e-06
5.77742e-06
2.48443e-06
5.88088e-06
4.29688e-06
6.1752e-06
6.55916e-06
6.67125e-06
8.70067e-06
7.02515e-06
9.73839e-06
5.81629e-06
6.92136e-06
-1.12708e-06
3.90294e-06
3.52599e-06
6.17669e-06
-3.11285e-06
7.14964e-06
-6.74009e-06
7.39022e-06
-7.66523e-06
7.37703e-06
-7.30733e-06
7.31488e-06
-6.4069e-06
7.2355e-06
-5.28523e-06
7.11879e-06
-4.12584e-06
6.95216e-06
-3.07877e-06
6.75307e-06
-2.25819e-06
6.54737e-06
-1.64276e-06
6.31292e-06
-1.02755e-06
6.02189e-06
-3.44365e-07
5.70984e-06
2.83228e-07
5.44435e-06
8.40011e-07
5.30951e-06
1.46269e-06
5.37198e-06
2.42196e-06
5.64384e-06
4.02502e-06
6.19304e-06
6.00997e-06
7.04073e-06
7.85298e-06
7.84485e-06
8.93426e-06
6.95575e-06
7.81047e-06
5.82867e-06
5.07938e-06
-1.55339e-06
7.94873e-06
-5.9822e-06
8.71728e-06
-7.50864e-06
8.5537e-06
-7.50166e-06
8.20027e-06
-6.9539e-06
7.88032e-06
-6.08695e-06
7.59265e-06
-4.99755e-06
7.29353e-06
-3.82673e-06
6.95722e-06
-2.74246e-06
6.60251e-06
-1.90347e-06
6.26949e-06
-1.30974e-06
5.9284e-06
-6.86456e-07
5.53494e-06
4.90962e-08
5.14485e-06
6.73316e-07
4.83634e-06
1.14852e-06
4.71507e-06
1.58396e-06
4.85922e-06
2.27782e-06
5.264e-06
3.62025e-06
6.01062e-06
5.26335e-06
7.15821e-06
6.70539e-06
8.4386e-06
7.65387e-06
8.31126e-06
7.93781e-06
1.41399e-05
-4.73168e-06
4.73167e-06
1.98527e-05
-2.45846e-05
-5.44838e-05
7.43366e-05
-0.000149569
9.5085e-05
-0.000211795
6.22264e-05
-0.000230509
1.87135e-05
-0.0002295
-1.00832e-06
-0.000218311
-1.11897e-05
-0.000208279
-1.00316e-05
-0.000200182
-8.09727e-06
-0.000192535
-7.6471e-06
-0.000184388
-8.14638e-06
-0.000174004
-1.03841e-05
-0.000158249
-1.57556e-05
-0.000129827
-2.84215e-05
-8.75423e-05
-4.22849e-05
-4.4094e-05
-4.34483e-05
-1.06324e-05
-3.34616e-05
-1.06324e-05
-6.33979e-06
1.10714e-05
-4.5247e-05
1.43229e-05
-0.000151258
0.000180348
-0.000262344
0.000206171
-0.000321825
0.000121707
-0.000294851
-8.26075e-06
-0.00023754
-5.832e-05
-0.000203906
-4.48236e-05
-0.000191458
-2.24787e-05
-0.000182946
-1.6609e-05
-0.000174809
-1.57845e-05
-0.000165139
-1.78167e-05
-0.000153439
-2.20841e-05
-0.000138783
-3.04111e-05
-0.000115485
-5.17196e-05
-8.27622e-05
-7.50077e-05
-4.98034e-05
-7.64071e-05
-2.06029e-05
-6.26621e-05
-3.12353e-05
-3.3977e-06
1.44691e-05
-4.25571e-05
5.34824e-05
-0.000149293
0.000287084
-0.000253289
0.000310168
-0.000289683
0.000158101
-0.000265749
-3.21941e-05
-0.000241694
-8.23748e-05
-0.00022112
-6.53983e-05
-0.000193783
-4.98155e-05
-0.000175673
-3.4719e-05
-0.000160841
-3.06172e-05
-0.000145166
-3.34911e-05
-0.00013196
-3.529e-05
-0.000118153
-4.42188e-05
-9.77539e-05
-7.21185e-05
-7.20393e-05
-0.000100722
-4.66652e-05
-0.000101781
-2.2277e-05
-8.70503e-05
-5.35123e-05
9.09262e-06
5.37643e-06
1.69525e-05
4.56227e-05
-8.57001e-05
0.000389736
-0.000162778
0.000387245
-0.000200527
0.00019585
-0.000218592
-1.41292e-05
-0.000227915
-7.30514e-05
-0.000214998
-7.83148e-05
-0.000184253
-8.05605e-05
-0.000147353
-7.16193e-05
-0.00011981
-5.81594e-05
-0.000109369
-4.39324e-05
-0.000107496
-3.71635e-05
-9.71367e-05
-5.45776e-05
-7.8767e-05
-9.04882e-05
-5.85041e-05
-0.000120985
-3.93218e-05
-0.000120964
-1.98553e-05
-0.000106517
-7.33675e-05
2.67726e-05
-2.13961e-05
6.30431e-05
9.35156e-06
2.01049e-05
0.000432675
-6.9215e-05
0.000476565
-0.000134304
0.000260939
-0.00017941
3.09772e-05
-0.000200628
-5.18333e-05
-0.000193869
-8.50742e-05
-0.000168972
-0.000105458
-0.000136817
-0.000103774
-0.000105363
-8.96134e-05
-8.07059e-05
-6.85897e-05
-7.2233e-05
-4.56363e-05
-7.65328e-05
-5.02778e-05
-6.02566e-05
-0.000106764
-4.42893e-05
-0.000136953
-3.04438e-05
-0.000134809
-1.60207e-05
-0.00012094
-8.93882e-05
1.79742e-05
-3.93704e-05
5.8782e-05
-3.14562e-05
8.0605e-05
0.000410852
-1.39039e-05
0.000571074
-7.33069e-05
0.000320342
-0.000132893
9.05634e-05
-0.000165408
-1.93184e-05
-0.000165303
-8.51796e-05
-0.000146564
-0.000124197
-0.000120443
-0.000129895
-9.42468e-05
-0.00011581
-7.10195e-05
-9.18172e-05
-5.50622e-05
-6.15937e-05
-5.96373e-05
-4.57028e-05
-4.36429e-05
-0.000122759
-3.08068e-05
-0.000149789
-2.14943e-05
-0.000144121
-1.18895e-05
-0.000130545
-0.000101278
1.62356e-05
-5.56059e-05
4.76856e-05
-6.29062e-05
0.000112276
0.000346262
4.92931e-05
0.000634057
-6.87361e-06
0.000376509
-8.1255e-05
0.000164945
-0.00012523
2.46569e-05
-0.0001319
-7.85097e-05
-0.000118945
-0.000137152
-9.83812e-05
-0.000150459
-7.80379e-05
-0.000136153
-5.9746e-05
-0.000110109
-4.25526e-05
-7.87872e-05
-4.01164e-05
-4.81391e-05
-2.74265e-05
-0.000135449
-1.84846e-05
-0.00015873
-1.31197e-05
-0.000149486
-7.74765e-06
-0.000135917
-0.000109025
1.68625e-05
-7.24684e-05
3.09238e-05
-7.69676e-05
0.000119564
0.000257622
0.00010875
0.00064487
5.70568e-05
0.000428202
-2.56632e-05
0.000247665
-8.21073e-05
8.11011e-05
-9.4735e-05
-6.58823e-05
-8.72236e-05
-0.000144663
-7.22402e-05
-0.000165442
-5.70247e-05
-0.000151369
-4.37755e-05
-0.000123359
-2.99043e-05
-9.26582e-05
-1.69269e-05
-6.11165e-05
-1.04997e-05
-0.000141876
-7.50583e-06
-0.000161724
-5.67835e-06
-0.000151314
-3.69464e-06
-0.000137901
-0.00011272
1.52009e-05
-1.67543e-05
2.08027e-05
-1.1584e-05
2.10907e-05
-7.79659e-06
1.99625e-05
-6.37347e-06
1.87468e-05
-5.73819e-06
1.76483e-05
-4.98849e-06
1.66304e-05
-3.97963e-06
1.5583e-05
-2.77928e-06
1.44213e-05
-1.58084e-06
1.32082e-05
-6.90301e-07
1.21122e-05
-2.13763e-07
1.10889e-05
3.36881e-07
9.97561e-06
1.16234e-06
8.884e-06
1.76493e-06
8.0957e-06
1.93682e-06
7.86935e-06
1.81032e-06
8.42614e-06
1.72103e-06
9.60919e-06
2.4372e-06
1.16654e-05
3.20711e-06
1.49445e-05
3.42635e-06
1.93032e-05
3.29511e-06
2.48787e-05
2.36232e-06
2.38246e-06
3.66362e-05
1.66356e-05
-3.339e-05
1.8733e-05
-1.36815e-05
1.467e-05
-3.73359e-06
1.42263e-05
-5.92982e-06
1.44458e-05
-5.95771e-06
1.39711e-05
-4.51374e-06
1.33367e-05
-3.34526e-06
1.26978e-05
-2.1404e-06
1.19508e-05
-8.33812e-07
1.10191e-05
2.41357e-07
9.89304e-06
9.12324e-07
8.59643e-06
1.63349e-06
7.40012e-06
2.35866e-06
6.19954e-06
2.9655e-06
5.24059e-06
2.89577e-06
5.06302e-06
1.98789e-06
6.00273e-06
7.81321e-07
7.29906e-06
1.14087e-06
9.4191e-06
1.08707e-06
1.29442e-05
-9.87493e-08
1.72765e-05
-1.03719e-06
2.22076e-05
-2.56881e-06
-5.40828e-06
2.99984e-05
3.65192e-06
-3.7042e-05
8.22321e-06
-1.82529e-05
1.34441e-05
-8.95452e-06
1.47267e-05
-7.21247e-06
1.43135e-05
-5.54457e-06
1.36553e-05
-3.85562e-06
1.27981e-05
-2.48811e-06
1.20112e-05
-1.35359e-06
1.1313e-05
-1.35636e-07
1.02669e-05
1.28745e-06
7.23541e-06
3.94385e-06
3.69377e-06
5.17514e-06
2.79867e-06
3.25375e-06
2.48275e-06
3.28142e-06
2.60724e-06
2.77128e-06
3.52002e-06
1.07511e-06
4.80778e-06
-5.06436e-07
5.91069e-06
3.7953e-08
8.0863e-06
-1.08854e-06
1.19165e-05
-3.92898e-06
1.60379e-05
-5.15852e-06
2.06426e-05
-7.17352e-06
-1.11857e-05
2.642e-05
-6.8206e-06
-3.02215e-05
-1.64633e-06
-2.34273e-05
5.4136e-06
-1.60145e-05
1.03292e-05
-1.21281e-05
1.38632e-05
-9.07871e-06
1.64249e-05
-6.4174e-06
1.80729e-05
-4.13622e-06
1.87524e-05
-2.03313e-06
1.81162e-05
5.00519e-07
1.57996e-05
3.60397e-06
1.14972e-05
8.24634e-06
7.5024e-06
9.16992e-06
4.18019e-06
6.57597e-06
3.10284e-06
4.35877e-06
2.19732e-06
3.6768e-06
1.73475e-06
1.53767e-06
2.24844e-06
-1.02013e-06
4.76804e-06
-2.48165e-06
8.69235e-06
-5.01284e-06
1.31131e-05
-8.34976e-06
1.64774e-05
-8.52282e-06
2.00914e-05
-1.07875e-05
-1.55647e-05
2.44703e-05
-3.05974e-06
-2.71618e-05
-1.45426e-06
-2.50328e-05
2.93809e-06
-2.04069e-05
7.25144e-06
-1.64416e-05
1.11071e-05
-1.29345e-05
1.44479e-05
-9.7583e-06
1.71492e-05
-6.83764e-06
1.9089e-05
-3.97299e-06
2.04366e-05
-8.47064e-07
2.12778e-05
2.76282e-06
2.27736e-05
6.75051e-06
2.31586e-05
8.78492e-06
2.1402e-05
8.33261e-06
1.79572e-05
7.80358e-06
1.32851e-05
8.34882e-06
8.23968e-06
6.58311e-06
5.60724e-06
1.61231e-06
6.89026e-06
-3.76468e-06
9.89774e-06
-8.02033e-06
1.24672e-05
-1.09192e-05
1.62903e-05
-1.2346e-05
2.08148e-05
-1.5312e-05
-1.96853e-05
2.49354e-05
-1.00024e-06
-2.61616e-05
6.28101e-08
-2.60959e-05
2.69919e-06
-2.30434e-05
5.90155e-06
-1.9644e-05
9.21311e-06
-1.62461e-05
1.24099e-05
-1.29551e-05
1.53335e-05
-9.76127e-06
1.79188e-05
-6.55838e-06
2.02693e-05
-3.19755e-06
2.26681e-05
3.64079e-07
2.55169e-05
3.90177e-06
2.79529e-05
6.3489e-06
2.89626e-05
7.32288e-06
2.89766e-05
7.78953e-06
2.90064e-05
8.31902e-06
2.82442e-05
7.34532e-06
2.56793e-05
4.17714e-06
2.3459e-05
-1.54442e-06
2.0689e-05
-5.25026e-06
1.83438e-05
-8.57394e-06
2.01733e-05
-1.41755e-05
2.48061e-05
-1.99448e-05
-2.13943e-05
2.65151e-05
-1.71582e-07
-2.599e-05
8.31838e-07
-2.70993e-05
2.74096e-06
-2.49525e-05
5.16097e-06
-2.2064e-05
7.85739e-06
-1.89426e-05
1.06629e-05
-1.57607e-05
1.34635e-05
-1.25618e-05
1.62242e-05
-9.31911e-06
1.9018e-05
-5.99132e-06
2.19969e-05
-2.61484e-06
2.5308e-05
5.90726e-07
2.85471e-05
3.10975e-06
3.11506e-05
4.71933e-06
3.31939e-05
5.7462e-06
3.51639e-05
6.349e-06
3.67231e-05
5.78621e-06
3.74577e-05
3.44254e-06
3.58614e-05
5.19094e-08
3.42947e-05
-3.68357e-06
3.32959e-05
-7.57516e-06
3.20883e-05
-1.29678e-05
2.93869e-05
-1.72433e-05
-1.6107e-05
2.40997e-05
3.76481e-07
-2.63665e-05
1.23087e-06
-2.79537e-05
2.62886e-06
-2.63505e-05
4.47496e-06
-2.39102e-05
6.65058e-06
-2.11182e-05
9.05356e-06
-1.81637e-05
1.16141e-05
-1.51223e-05
1.43126e-05
-1.20176e-05
1.71887e-05
-8.86741e-06
2.03137e-05
-5.73982e-06
2.37095e-05
-2.80516e-06
2.71613e-05
-3.42031e-07
3.03791e-05
1.50151e-06
3.33338e-05
2.7915e-06
3.6179e-05
3.50379e-06
3.87039e-05
3.26129e-06
4.03544e-05
1.79211e-06
4.09998e-05
-5.93469e-07
4.0832e-05
-3.51574e-06
4.01998e-05
-6.94298e-06
3.80142e-05
-1.07822e-05
3.40577e-05
-1.32869e-05
-1.23769e-05
3.03278e-05
4.69654e-07
-2.68362e-05
1.15176e-06
-2.86358e-05
2.21246e-06
-2.74112e-05
3.65007e-06
-2.53478e-05
5.41908e-06
-2.28872e-05
7.4675e-06
-2.0212e-05
9.75717e-06
-1.74119e-05
1.22764e-05
-1.45368e-05
1.50414e-05
-1.16324e-05
1.80751e-05
-8.77354e-06
2.13576e-05
-6.08765e-06
2.47601e-05
-3.74459e-06
2.81208e-05
-1.85924e-06
3.13773e-05
-4.64894e-07
3.45181e-05
3.6299e-07
3.73551e-05
4.243e-07
3.95509e-05
-4.03621e-07
4.09433e-05
-1.98597e-06
4.15023e-05
-4.07478e-06
4.10811e-05
-6.52178e-06
3.92249e-05
-8.926e-06
3.61701e-05
-1.02319e-05
-9.40651e-06
3.31996e-05
3.13962e-07
-2.71501e-05
7.83511e-07
-2.91054e-05
1.57372e-06
-2.82014e-05
2.6972e-06
-2.64712e-05
4.13969e-06
-2.43296e-05
5.87815e-06
-2.19504e-05
7.89351e-06
-1.94272e-05
1.0178e-05
-1.68213e-05
1.27344e-05
-1.41888e-05
1.55614e-05
-1.16007e-05
1.86283e-05
-9.15462e-06
2.18499e-05
-6.96618e-06
2.51199e-05
-5.12913e-06
2.83607e-05
-3.70572e-06
3.14966e-05
-2.77282e-06
3.43632e-05
-2.44225e-06
3.67295e-05
-2.76992e-06
3.84186e-05
-3.67515e-06
3.93271e-05
-4.98326e-06
3.9295e-05
-6.48954e-06
3.81875e-05
-7.81863e-06
3.62924e-05
-8.33681e-06
-7.51309e-06
3.4399e-05
3.37522e-08
-2.71839e-05
2.86504e-07
-2.93581e-05
8.38182e-07
-2.87531e-05
1.69638e-06
-2.73294e-05
2.8587e-06
-2.54919e-05
4.31654e-06
-2.34082e-05
6.06091e-06
-2.11715e-05
8.08611e-06
-1.88465e-05
1.03879e-05
-1.64906e-05
1.29549e-05
-1.41677e-05
1.5755e-05
-1.19548e-05
1.87255e-05
-9.9366e-06
2.17858e-05
-8.18935e-06
2.48557e-05
-6.77563e-06
2.78419e-05
-5.75895e-06
3.06037e-05
-5.20401e-06
3.29664e-05
-5.1326e-06
3.47746e-05
-5.48343e-06
3.59134e-05
-6.12211e-06
3.62799e-05
-6.85616e-06
3.58529e-05
-7.39156e-06
3.48511e-05
-7.33506e-06
-6.38083e-06
3.37189e-05
-2.45862e-07
-2.6938e-05
-2.10607e-07
-2.93933e-05
1.16947e-07
-2.90806e-05
7.34144e-07
-2.79465e-05
1.64208e-06
-2.63997e-05
2.83727e-06
-2.46033e-05
4.31538e-06
-2.26496e-05
6.07174e-06
-2.06029e-05
8.0992e-06
-1.85181e-05
1.03828e-05
-1.64513e-05
1.28921e-05
-1.44641e-05
1.55767e-05
-1.26213e-05
1.83708e-05
-1.09833e-05
2.11986e-05
-9.60343e-06
2.3969e-05
-8.52933e-06
2.65634e-05
-7.79837e-06
2.88448e-05
-7.414e-06
3.06855e-05
-7.32423e-06
3.19844e-05
-7.42095e-06
3.26719e-05
-7.54368e-06
3.27507e-05
-7.4703e-06
3.2356e-05
-6.94035e-06
-5.7494e-06
3.17245e-05
-4.76698e-07
-2.64613e-05
-6.40702e-07
-2.92293e-05
-5.20449e-07
-2.92008e-05
-1.2332e-07
-2.83435e-05
5.48524e-07
-2.70715e-05
1.49446e-06
-2.55492e-05
2.71278e-06
-2.38679e-05
4.19958e-06
-2.20897e-05
5.94698e-06
-2.02655e-05
7.93947e-06
-1.84439e-05
1.01496e-05
-1.66742e-05
1.25351e-05
-1.50068e-05
1.50403e-05
-1.34884e-05
1.75974e-05
-1.21605e-05
2.01249e-05
-1.10568e-05
2.25241e-05
-1.01975e-05
2.4686e-05
-9.57581e-06
2.65073e-05
-9.14547e-06
2.79034e-05
-8.81703e-06
2.88188e-05
-8.4591e-06
2.92485e-05
-7.90001e-06
2.92572e-05
-6.94908e-06
-5.44373e-06
2.89515e-05
-6.39263e-07
-2.5822e-05
-9.68986e-07
-2.88995e-05
-1.0305e-06
-2.91392e-05
-8.34502e-07
-2.85394e-05
-3.81686e-07
-2.75242e-05
3.29035e-07
-2.62598e-05
1.29719e-06
-2.48361e-05
2.52043e-06
-2.3313e-05
3.9911e-06
-2.17363e-05
5.69484e-06
-2.01476e-05
7.60752e-06
-1.85869e-05
9.69342e-06
-1.70926e-05
1.19052e-05
-1.57001e-05
1.41845e-05
-1.44397e-05
1.64613e-05
-1.33335e-05
1.86544e-05
-1.23905e-05
2.06763e-05
-1.15978e-05
2.24435e-05
-1.09125e-05
2.38845e-05
-1.0258e-05
2.49489e-05
-9.5235e-06
2.56162e-05
-8.56731e-06
2.58988e-05
-7.23159e-06
-5.36401e-06
2.5819e-05
-7.33827e-07
-2.50882e-05
-1.18847e-06
-2.84448e-05
-1.40242e-06
-2.89252e-05
-1.38348e-06
-2.85583e-05
-1.12961e-06
-2.7778e-05
-6.37237e-07
-2.67522e-05
9.5697e-08
-2.5569e-05
1.06706e-06
-2.42844e-05
2.27132e-06
-2.29405e-05
3.69594e-06
-2.15723e-05
5.3203e-06
-2.02112e-05
7.11442e-06
-1.88867e-05
9.03865e-06
-1.76243e-05
1.10439e-05
-1.64449e-05
1.3072e-05
-1.53614e-05
1.50566e-05
-1.43751e-05
1.69277e-05
-1.34688e-05
1.86169e-05
-1.26016e-05
2.00634e-05
-1.17045e-05
2.12185e-05
-1.06786e-05
2.20483e-05
-9.39712e-06
2.25297e-05
-7.713e-06
-5.46681e-06
2.26324e-05
-7.70007e-07
-2.43181e-05
-1.30877e-06
-2.7906e-05
-1.64315e-06
-2.85907e-05
-1.77422e-06
-2.84271e-05
-1.69551e-06
-2.78566e-05
-1.4003e-06
-2.70473e-05
-8.84375e-07
-2.60849e-05
-1.47051e-07
-2.50217e-05
8.0712e-07
-2.38947e-05
1.96808e-06
-2.27332e-05
3.3189e-06
-2.1562e-05
4.835e-06
-2.04027e-05
6.48383e-06
-1.92731e-05
8.22522e-06
-1.81862e-05
1.00118e-05
-1.7148e-05
1.17906e-05
-1.61537e-05
1.35055e-05
-1.51836e-05
1.5101e-05
-1.4197e-05
1.6525e-05
-1.31285e-05
1.77311e-05
-1.18847e-05
1.8677e-05
-1.03431e-05
1.93186e-05
-8.35468e-06
-5.74417e-06
1.95959e-05
-7.61456e-07
-2.35566e-05
-1.34829e-06
-2.73192e-05
-1.77176e-06
-2.81672e-05
-2.02446e-06
-2.81744e-05
-2.09465e-06
-2.77864e-05
-1.97207e-06
-2.71699e-05
-1.64985e-06
-2.64071e-05
-1.12531e-06
-2.55462e-05
-4.00657e-07
-2.46193e-05
5.16582e-07
-2.36504e-05
1.61302e-06
-2.26584e-05
2.86906e-06
-2.16586e-05
4.2588e-06
-2.06627e-05
5.75029e-06
-1.96775e-05
7.30616e-06
-1.87037e-05
8.88481e-06
-1.77323e-05
1.04423e-05
-1.6741e-05
1.19342e-05
-1.56889e-05
1.33169e-05
-1.45113e-05
1.45477e-05
-1.31156e-05
1.55816e-05
-1.13771e-05
1.63652e-05
-9.13837e-06
-6.20439e-06
1.68254e-05
-7.22721e-07
-2.28339e-05
-1.32895e-06
-2.6713e-05
-1.81339e-06
-2.76828e-05
-2.16007e-06
-2.78277e-05
-2.35214e-06
-2.75943e-05
-2.37588e-06
-2.71461e-05
-2.22192e-06
-2.65611e-05
-1.88552e-06
-2.58826e-05
-1.36666e-06
-2.51381e-05
-6.70196e-07
-2.43468e-05
1.93967e-07
-2.35224e-05
1.2108e-06
-2.26753e-05
2.3604e-06
-2.18122e-05
3.61833e-06
-2.09354e-05
4.9562e-06
-2.00415e-05
6.34259e-06
-1.91187e-05
7.74424e-06
-1.81427e-05
9.12694e-06
-1.70716e-05
1.04556e-05
-1.58401e-05
1.16932e-05
-1.43532e-05
1.27968e-05
-1.24808e-05
1.37119e-05
-1.00536e-05
-6.85652e-06
1.4364e-05
-6.67356e-07
-2.21666e-05
-1.27262e-06
-2.61078e-05
-1.79466e-06
-2.71607e-05
-2.21013e-06
-2.74122e-05
-2.49792e-06
-2.73065e-05
-2.64153e-06
-2.70025e-05
-2.62949e-06
-2.65731e-05
-2.45524e-06
-2.60568e-05
-2.11679e-06
-2.54766e-05
-1.61653e-06
-2.4847e-05
-9.61104e-07
-2.41778e-05
-1.61253e-07
-2.34751e-05
7.68511e-07
-2.27419e-05
1.81042e-06
-2.19772e-05
2.94411e-06
-2.11752e-05
4.14728e-06
-2.03219e-05
5.39633e-06
-1.93918e-05
6.66664e-06
-1.8342e-05
7.93188e-06
-1.71054e-05
9.16209e-06
-1.55835e-05
1.032e-05
-1.36386e-05
1.13555e-05
-1.10891e-05
-7.70061e-06
1.21996e-05
-6.06726e-07
-2.15599e-05
-1.19861e-06
-2.55159e-05
-1.74029e-06
-2.66191e-05
-2.20294e-06
-2.69495e-05
-2.56257e-06
-2.69469e-05
-2.80088e-06
-2.67642e-05
-2.90503e-06
-2.64689e-05
-2.86713e-06
-2.60947e-05
-2.68358e-06
-2.56601e-05
-2.35465e-06
-2.51759e-05
-1.88416e-06
-2.46482e-05
-1.27901e-06
-2.40802e-05
-5.48816e-07
-2.3472e-05
2.94612e-07
-2.28206e-05
1.23794e-06
-2.21185e-05
2.26699e-06
-2.1351e-05
3.36698e-06
-2.04919e-05
4.52233e-06
-1.94974e-05
5.71552e-06
-1.82987e-05
6.92473e-06
-1.67927e-05
8.12017e-06
-1.48341e-05
9.25935e-06
-1.22282e-05
-8.72336e-06
1.02821e-05
-5.49289e-07
-2.10106e-05
-1.1221e-06
-2.4943e-05
-1.67078e-06
-2.60703e-05
-2.16313e-06
-2.64572e-05
-2.57389e-06
-2.65361e-05
-2.88416e-06
-2.64539e-05
-3.08062e-06
-2.62724e-05
-3.15466e-06
-2.60206e-05
-3.10162e-06
-2.57131e-05
-2.92013e-06
-2.53573e-05
-2.6116e-06
-2.49567e-05
-2.17973e-06
-2.45121e-05
-1.62989e-06
-2.40219e-05
-9.68587e-07
-2.34819e-05
-2.0289e-07
-2.28842e-05
6.60146e-07
-2.22141e-05
1.61368e-06
-2.14454e-05
2.65058e-06
-2.05343e-05
3.76198e-06
-1.94101e-05
4.93459e-06
-1.79653e-05
6.14696e-06
-1.60464e-05
7.36527e-06
-1.34466e-05
-9.89763e-06
8.53954e-06
-5.00154e-07
-2.05105e-05
-1.05328e-06
-2.43898e-05
-1.6011e-06
-2.55224e-05
-2.10988e-06
-2.59483e-05
-2.55471e-06
-2.60912e-05
-2.91729e-06
-2.60913e-05
-3.18483e-06
-2.60049e-05
-3.34874e-06
-2.58567e-05
-3.40386e-06
-2.5658e-05
-3.34775e-06
-2.54134e-05
-3.17999e-06
-2.51244e-05
-2.90162e-06
-2.47904e-05
-2.51451e-06
-2.44089e-05
-2.02074e-06
-2.39757e-05
-1.4219e-06
-2.34831e-05
-7.18732e-07
-2.29172e-05
8.90053e-08
-2.22531e-05
1.00194e-06
-2.14472e-05
2.01938e-06
-2.04275e-05
3.13645e-06
-1.90823e-05
4.34018e-06
-1.72501e-05
5.60546e-06
-1.47118e-05
-1.11844e-05
6.89221e-06
-4.61078e-07
-2.00493e-05
-9.97362e-07
-2.38534e-05
-1.54038e-06
-2.49793e-05
-2.05622e-06
-2.54324e-05
-2.52169e-06
-2.56258e-05
-2.92034e-06
-2.56926e-05
-3.24078e-06
-2.56845e-05
-3.47529e-06
-2.56223e-05
-3.61882e-06
-2.55144e-05
-3.66842e-06
-2.53638e-05
-3.62245e-06
-2.51704e-05
-3.47994e-06
-2.49329e-05
-3.24001e-06
-2.46488e-05
-2.90112e-06
-2.43146e-05
-2.46044e-06
-2.39237e-05
-1.9133e-06
-2.34643e-05
-1.25318e-06
-2.29132e-05
-4.72463e-07
-2.22279e-05
4.3581e-07
-2.13357e-05
1.47479e-06
-2.01213e-05
2.63967e-06
-1.8415e-05
3.9136e-06
-1.59858e-05
-1.25363e-05
5.26553e-06
-4.31142e-07
-1.96181e-05
-9.55352e-07
-2.33291e-05
-1.4925e-06
-2.44421e-05
-2.00929e-06
-2.49156e-05
-2.48527e-06
-2.51498e-05
-2.90696e-06
-2.5271e-05
-3.26527e-06
-2.53262e-05
-3.554e-06
-2.53336e-05
-3.76892e-06
-2.52995e-05
-3.90713e-06
-2.52255e-05
-3.96631e-06
-2.51112e-05
-3.94422e-06
-2.49549e-05
-3.83795e-06
-2.47551e-05
-3.64329e-06
-2.45092e-05
-3.35394e-06
-2.4213e-05
-2.9609e-06
-2.38573e-05
-2.45245e-06
-2.34216e-05
-1.81471e-06
-2.28656e-05
-1.03368e-06
-2.21167e-05
-9.86017e-08
-2.10564e-05
9.93626e-07
-1.95072e-05
2.23398e-06
-1.72261e-05
-1.39019e-05
3.59957e-06
-4.07995e-07
-1.921e-05
-9.25438e-07
-2.28116e-05
-1.45728e-06
-2.39102e-05
-1.97114e-06
-2.44018e-05
-2.45021e-06
-2.46707e-05
-2.88477e-06
-2.48364e-05
-3.26876e-06
-2.49422e-05
-3.59811e-06
-2.50041e-05
-3.86997e-06
-2.50275e-05
-4.08202e-06
-2.50134e-05
-4.23187e-06
-2.49613e-05
-4.31662e-06
-2.48702e-05
-4.33218e-06
-2.47395e-05
-4.27254e-06
-2.45688e-05
-4.129e-06
-2.43565e-05
-3.8894e-06
-2.40968e-05
-3.53786e-06
-2.37731e-05
-3.05533e-06
-2.33481e-05
-2.4215e-06
-2.27506e-05
-1.61827e-06
-2.18596e-05
-6.34604e-07
-2.04909e-05
5.2865e-07
-1.83894e-05
-1.52287e-05
1.85542e-06
-3.89523e-07
-1.88205e-05
-9.04595e-07
-2.22966e-05
-1.4319e-06
-2.3383e-05
-1.94012e-06
-2.38936e-05
-2.41674e-06
-2.4194e-05
-2.85628e-06
-2.43968e-05
-3.25616e-06
-2.45423e-05
-3.6149e-06
-2.46453e-05
-3.93145e-06
-2.47109e-05
-4.20452e-06
-2.47403e-05
-4.4322e-06
-2.47336e-05
-4.61156e-06
-2.46908e-05
-4.73806e-06
-2.46129e-05
-4.80486e-06
-2.45019e-05
-4.80192e-06
-2.43594e-05
-4.71511e-06
-2.41836e-05
-4.52569e-06
-2.39625e-05
-4.21057e-06
-2.36633e-05
-3.74396e-06
-2.32172e-05
-3.10084e-06
-2.25027e-05
-2.26208e-06
-2.13297e-05
-1.21993e-06
-1.94316e-05
-1.64672e-05
1.84961e-08
-3.74943e-07
-1.84456e-05
-8.89713e-07
-2.1782e-05
-1.41212e-06
-2.28607e-05
-1.91218e-06
-2.33936e-05
-2.38191e-06
-2.37243e-05
-2.82021e-06
-2.39585e-05
-3.22808e-06
-2.41343e-05
-3.60687e-06
-2.42664e-05
-3.95756e-06
-2.43602e-05
-4.28025e-06
-2.44176e-05
-4.57396e-06
-2.44399e-05
-4.83628e-06
-2.44285e-05
-5.06296e-06
-2.43862e-05
-5.24721e-06
-2.43177e-05
-5.37872e-06
-2.42279e-05
-5.44264e-06
-2.41197e-05
-5.41875e-06
-2.39865e-05
-5.28123e-06
-2.38009e-05
-4.99987e-06
-2.34986e-05
-4.54322e-06
-2.29594e-05
-3.88361e-06
-2.19894e-05
-3.00329e-06
-2.0312e-05
-1.7571e-05
-1.89953e-06
-3.64299e-07
-1.80814e-05
-8.77664e-07
-2.12687e-05
-1.3929e-06
-2.23456e-05
-1.88189e-06
-2.29047e-05
-2.34092e-06
-2.32652e-05
-2.77293e-06
-2.35264e-05
-3.18232e-06
-2.37249e-05
-3.57319e-06
-2.38755e-05
-3.94865e-06
-2.39847e-05
-4.31042e-06
-2.40558e-05
-4.65878e-06
-2.40915e-05
-4.99235e-06
-2.40949e-05
-5.30774e-06
-2.40709e-05
-5.59899e-06
-2.40265e-05
-5.85656e-06
-2.39704e-05
-6.06617e-06
-2.39102e-05
-6.20758e-06
-2.38452e-05
-6.25377e-06
-2.37547e-05
-6.17142e-06
-2.3581e-05
-5.9233e-06
-2.32075e-05
-5.47301e-06
-2.24397e-05
-4.79133e-06
-2.09937e-05
-1.84997e-05
-3.86272e-06
-3.56627e-07
-1.77248e-05
-8.6464e-07
-2.07609e-05
-1.36884e-06
-2.18415e-05
-1.84347e-06
-2.243e-05
-2.28837e-06
-2.28203e-05
-2.70987e-06
-2.31049e-05
-3.11529e-06
-2.33195e-05
-3.51123e-06
-2.34796e-05
-3.90283e-06
-2.35931e-05
-4.29354e-06
-2.36651e-05
-4.68512e-06
-2.37e-05
-5.07753e-06
-2.37025e-05
-5.46873e-06
-2.36797e-05
-5.85422e-06
-2.3641e-05
-6.22616e-06
-2.35986e-05
-6.57206e-06
-2.35644e-05
-6.87317e-06
-2.35441e-05
-7.10303e-06
-2.35248e-05
-7.22685e-06
-2.34571e-05
-7.20277e-06
-2.32316e-05
-6.98569e-06
-2.26568e-05
-6.5336e-06
-2.14458e-05
-1.92183e-05
-5.81497e-06
-3.48801e-07
-1.73761e-05
-8.46034e-07
-2.02638e-05
-1.33486e-06
-2.13527e-05
-1.79186e-06
-2.1973e-05
-2.21956e-06
-2.23926e-05
-2.62685e-06
-2.26977e-05
-3.02343e-06
-2.2923e-05
-3.41797e-06
-2.30851e-05
-3.81746e-06
-2.31937e-05
-4.22706e-06
-2.32556e-05
-4.65003e-06
-2.3277e-05
-5.08785e-06
-2.32648e-05
-5.54012e-06
-2.32275e-05
-6.00428e-06
-2.31769e-05
-6.47489e-06
-2.3128e-05
-6.94231e-06
-2.3097e-05
-7.3908e-06
-2.30956e-05
-7.79632e-06
-2.31193e-05
-8.12469e-06
-2.31287e-05
-8.33117e-06
-2.30251e-05
-8.36284e-06
-2.26251e-05
-8.16415e-06
-2.16445e-05
-1.96977e-05
-7.6847e-06
-3.36586e-07
-1.70396e-05
-8.1799e-07
-1.97824e-05
-1.28773e-06
-2.0883e-05
-1.72412e-06
-2.15367e-05
-2.1317e-06
-2.19851e-05
-2.52125e-06
-2.23082e-05
-2.90428e-06
-2.25401e-05
-3.29115e-06
-2.26983e-05
-3.69042e-06
-2.27945e-05
-4.10873e-06
-2.28373e-05
-4.55076e-06
-2.2835e-05
-5.01949e-06
-2.27961e-05
-5.51623e-06
-2.27308e-05
-6.04061e-06
-2.26526e-05
-6.59002e-06
-2.25786e-05
-7.15847e-06
-2.25285e-05
-7.73449e-06
-2.25195e-05
-8.29838e-06
-2.25554e-05
-8.81896e-06
-2.26081e-05
-9.25123e-06
-2.25928e-05
-9.53649e-06
-2.23398e-05
-9.60613e-06
-2.15748e-05
-1.99147e-05
-9.38909e-06
-3.18361e-07
-1.67213e-05
-7.80543e-07
-1.93202e-05
-1.22821e-06
-2.04354e-05
-1.64092e-06
-2.11241e-05
-2.02493e-06
-2.16012e-05
-2.3927e-06
-2.19406e-05
-2.75718e-06
-2.21757e-05
-3.12999e-06
-2.23256e-05
-3.52088e-06
-2.24036e-05
-3.93759e-06
-2.24207e-05
-4.38599e-06
-2.23867e-05
-4.87031e-06
-2.23118e-05
-5.39344e-06
-2.22076e-05
-5.95716e-06
-2.20888e-05
-6.5618e-06
-2.19739e-05
-7.20538e-06
-2.18849e-05
-7.88161e-06
-2.18433e-05
-8.57674e-06
-2.18601e-05
-9.2652e-06
-2.19195e-05
-9.90509e-06
-2.19528e-05
-1.04353e-05
-2.18095e-05
-1.07768e-05
-2.12333e-05
-1.98534e-05
-1.0838e-05
-2.99148e-07
-1.64221e-05
-7.40548e-07
-1.88789e-05
-1.16276e-06
-2.00133e-05
-1.54726e-06
-2.07397e-05
-1.90271e-06
-2.12459e-05
-2.24337e-06
-2.16001e-05
-2.58342e-06
-2.18358e-05
-2.93537e-06
-2.19737e-05
-3.30961e-06
-2.20295e-05
-3.71448e-06
-2.20159e-05
-4.15651e-06
-2.19447e-05
-4.6408e-06
-2.18275e-05
-5.17151e-06
-2.16769e-05
-5.75218e-06
-2.15081e-05
-6.38585e-06
-2.13402e-05
-7.07442e-06
-2.11963e-05
-7.8171e-06
-2.11005e-05
-8.60718e-06
-2.107e-05
-9.42697e-06
-2.10996e-05
-1.02413e-05
-2.11383e-05
-1.09918e-05
-2.1059e-05
-1.15935e-05
-2.06315e-05
-1.95088e-05
-1.1938e-05
-2.91838e-07
-1.61303e-05
-7.12042e-07
-1.84588e-05
-1.10326e-06
-1.96221e-05
-1.45203e-06
-2.0391e-05
-1.77114e-06
-2.09269e-05
-2.0773e-06
-2.1294e-05
-2.38583e-06
-2.15273e-05
-2.70959e-06
-2.16501e-05
-3.05892e-06
-2.16802e-05
-3.44202e-06
-2.16328e-05
-3.86543e-06
-2.15213e-05
-4.33455e-06
-2.13584e-05
-4.8542e-06
-2.11573e-05
-5.42921e-06
-2.09331e-05
-6.06466e-06
-2.07048e-05
-6.7658e-06
-2.04952e-05
-7.5369e-06
-2.03293e-05
-8.37848e-06
-2.02283e-05
-9.28212e-06
-2.01959e-05
-1.02228e-05
-2.01976e-05
-1.11501e-05
-2.01317e-05
-1.19809e-05
-1.98007e-05
-1.88924e-05
-1.25973e-05
-3.15538e-07
-1.58148e-05
-7.14349e-07
-1.80601e-05
-1.0649e-06
-1.92717e-05
-1.36595e-06
-2.00901e-05
-1.63734e-06
-2.06556e-05
-1.89919e-06
-2.10323e-05
-2.16785e-06
-2.12587e-05
-2.45575e-06
-2.13622e-05
-2.77222e-06
-2.13638e-05
-3.12441e-06
-2.12807e-05
-3.51802e-06
-2.11277e-05
-3.95802e-06
-2.09184e-05
-4.44928e-06
-2.0666e-05
-4.99717e-06
-2.03853e-05
-5.60805e-06
-2.00939e-05
-6.2895e-06
-1.98137e-05
-7.04977e-06
-1.9569e-05
-7.89568e-06
-1.93823e-05
-8.82806e-06
-1.92635e-05
-9.83401e-06
-1.91916e-05
-1.08763e-05
-1.90894e-05
-1.18819e-05
-1.8795e-05
-1.804e-05
-1.27343e-05
-3.91804e-07
-1.5423e-05
-7.67504e-07
-1.76845e-05
-1.06252e-06
-1.89768e-05
-1.29842e-06
-1.98543e-05
-1.5068e-06
-2.04474e-05
-1.71253e-06
-2.08266e-05
-1.93236e-06
-2.10389e-05
-2.17704e-06
-2.11176e-05
-2.45361e-06
-2.10873e-05
-2.76702e-06
-2.09673e-05
-3.12128e-06
-2.07735e-05
-3.52017e-06
-2.05196e-05
-3.96793e-06
-2.02183e-05
-4.46978e-06
-1.98834e-05
-5.03247e-06
-1.95312e-05
-5.66472e-06
-1.91814e-05
-6.37715e-06
-1.88566e-05
-7.18099e-06
-1.85785e-05
-8.08469e-06
-1.83598e-05
-9.08719e-06
-1.81891e-05
-1.01672e-05
-1.80094e-05
-1.12694e-05
-1.76928e-05
-1.7018e-05
-1.22914e-05
-5.41271e-07
-1.48818e-05
-8.8914e-07
-1.73368e-05
-1.10589e-06
-1.87602e-05
-1.25306e-06