/*--------------------------------*- C++ -*----------------------------------*\
| =========                 |                                                 |
| \\      /  F ield         | OpenFOAM: The Open Source CFD Toolbox           |
|  \\    /   O peration     | Version:  v2012                                 |
|   \\  /    A nd           | Website:  www.openfoam.com                      |
|    \\/     M anipulation  |                                                 |
\*---------------------------------------------------------------------------*/
FoamFile
{
    version     2.0;
    format      ascii;
    class       volVectorField;
    location    "0.6";
    object      U;
}
// * * * * * * * * * * * * * * * * * * * * * * * * * * * * * * * * * * * * * //

dimensions      [0 1 -1 0 0 0 0];


internalField   nonuniform List<vector> 
2268
(
(-0.0419087 0.0171314 0)
(-0.0778164 0.00792921 0)
(-0.081208 -0.00395276 0)
(-0.0619307 -0.0083796 0)
(-0.0387188 -0.00884262 0)
(-0.0157248 -0.00792421 0)
(0.00428732 -0.00669035 0)
(0.02081 -0.0054356 0)
(0.0341583 -0.00439136 0)
(0.0448619 -0.00358136 0)
(0.0535469 -0.00295827 0)
(0.060618 -0.00242952 0)
(0.0662209 -0.00192206 0)
(0.0702576 -0.00133986 0)
(0.0725433 -0.000329376 0)
(0.0713144 0.00146358 0)
(0.0643675 0.00448764 0)
(0.0485038 0.00875279 0)
(0.0190481 0.0133172 0)
(-0.0224003 0.0190819 0)
(-0.0827824 0.0167075 0)
(-0.138505 -0.00491289 0)
(-0.0581072 -0.0414586 0)
(-0.044239 0.0381408 0)
(-0.0510079 0.0149314 0)
(-0.0452289 -0.00629284 0)
(-0.0289283 -0.0149256 0)
(-0.00950411 -0.0164177 0)
(0.00945122 -0.0150448 0)
(0.0259659 -0.0127769 0)
(0.0395647 -0.01038 0)
(0.0504361 -0.00831345 0)
(0.0590229 -0.00668983 0)
(0.065831 -0.00543279 0)
(0.0711595 -0.00434006 0)
(0.0750667 -0.0032595 0)
(0.0774937 -0.0020414 0)
(0.078311 -0.000266085 0)
(0.0772468 0.00273909 0)
(0.0731609 0.00767631 0)
(0.0638355 0.015004 0)
(0.0459101 0.0238501 0)
(0.0167184 0.033928 0)
(-0.0176017 0.0343953 0)
(-0.0667823 0.00744924 0)
(-0.0223277 -0.0697072 0)
(-0.0305024 0.0541409 0)
(-0.0240015 0.0143187 0)
(-0.0176669 -0.0123884 0)
(-0.0031515 -0.0227627 0)
(0.0127938 -0.0244689 0)
(0.0279875 -0.0223405 0)
(0.0410863 -0.0189006 0)
(0.0517591 -0.015332 0)
(0.0601515 -0.0122152 0)
(0.0666295 -0.00973792 0)
(0.07162 -0.00779371 0)
(0.0753397 -0.00606972 0)
(0.0777678 -0.0043496 0)
(0.078857 -0.0024763 0)
(0.0786277 -3.47238e-05 0)
(0.0770841 0.00381003 0)
(0.0738304 0.0100784 0)
(0.0678735 0.0196092 0)
(0.0578774 0.0317441 0)
(0.0422643 0.0439452 0)
(0.027589 0.0459169 0)
(-0.0096697 0.0136499 0)
(0.0121546 -0.0800676 0)
(-0.0130453 0.0630403 0)
(-0.000108617 0.0114443 0)
(0.00761108 -0.0176653 0)
(0.0205004 -0.0293984 0)
(0.0330952 -0.0310692 0)
(0.0444994 -0.028186 0)
(0.0540981 -0.0237371 0)
(0.0617589 -0.0191629 0)
(0.0675973 -0.0151521 0)
(0.0719058 -0.0119548 0)
(0.075056 -0.00943421 0)
(0.0771933 -0.00715726 0)
(0.0782102 -0.00485755 0)
(0.0780676 -0.00242325 0)
(0.0769407 0.000536481 0)
(0.0750826 0.00491273 0)
(0.0725762 0.0118889 0)
(0.0691158 0.0224751 0)
(0.0644219 0.0359927 0)
(0.0580786 0.049165 0)
(0.0537141 0.0524641 0)
(0.0306576 0.0198843 0)
(0.0372655 -0.0698286 0)
(0.00392877 0.0610113 0)
(0.0221987 0.00718353 0)
(0.0321932 -0.0229443 0)
(0.0431147 -0.0348091 0)
(0.0521258 -0.0359663 0)
(0.0595823 -0.0323204 0)
(0.0656042 -0.0270623 0)
(0.0702142 -0.0217059 0)
(0.0734623 -0.0169967 0)
(0.0755604 -0.0132467 0)
(0.0768486 -0.0102943 0)
(0.0774155 -0.0075673 0)
(0.0770541 -0.00476483 0)
(0.0757264 -0.00188924 0)
(0.0737669 0.00136974 0)
(0.0716742 0.00590737 0)
(0.0698952 0.0129915 0)
(0.0685028 0.0237392 0)
(0.0677016 0.0373376 0)
(0.067727 0.0503942 0)
(0.0698642 0.0547803 0)
(0.057648 0.0274106 0)
(0.0541179 -0.050359 0)
(0.01684 0.0494733 0)
(0.0428029 0.000709006 0)
(0.0562269 -0.0281495 0)
(0.0646527 -0.0386664 0)
(0.0695678 -0.0388398 0)
(0.0729304 -0.0345274 0)
(0.0754178 -0.0287301 0)
(0.0770642 -0.0228517 0)
(0.0777842 -0.0176595 0)
(0.0776968 -0.0135486 0)
(0.0771414 -0.0103451 0)
(0.0761737 -0.00729697 0)
(0.0744727 -0.00407585 0)
(0.0719916 -0.000891474 0)
(0.0692296 0.00244055 0)
(0.0669246 0.00677852 0)
(0.0658276 0.0134525 0)
(0.0661879 0.0237095 0)
(0.0683708 0.0365616 0)
(0.0730045 0.0487997 0)
(0.0799026 0.054128 0)
(0.0762648 0.0347855 0)
(0.0671699 -0.023011 0)
(0.0249042 0.0310411 0)
(0.0619956 -0.00873934 0)
(0.0792613 -0.0329774 0)
(0.0842449 -0.0406007 0)
(0.0845412 -0.0395332 0)
(0.083898 -0.034822 0)
(0.0831343 -0.0288044 0)
(0.0820867 -0.0226487 0)
(0.0804686 -0.0171547 0)
(0.0783048 -0.0128527 0)
(0.0759792 -0.00958376 0)
(0.0735529 -0.00635277 0)
(0.0705739 -0.0028008 0)
(0.0669775 0.000562665 0)
(0.0634339 0.00374571 0)
(0.0609118 0.00754269 0)
(0.0604362 0.0133627 0)
(0.0622831 0.0226624 0)
(0.0667959 0.0342202 0)
(0.0749445 0.0451118 0)
(0.0858496 0.0510511 0)
(0.0900784 0.041131 0)
(0.080126 0.0110857 0)
(0.0323149 0.00601629 0)
(0.0813882 -0.024041 0)
(0.0996205 -0.0389971 0)
(0.0997855 -0.0417677 0)
(0.0955929 -0.0392035 0)
(0.0916438 -0.0342506 0)
(0.0882991 -0.0281349 0)
(0.0850683 -0.0217338 0)
(0.0814635 -0.015894 0)
(0.0774431 -0.0113347 0)
(0.073487 -0.00799373 0)
(0.0697159 -0.0046453 0)
(0.065555 -0.000918351 0)
(0.0609075 0.00253155 0)
(0.0566106 0.00533532 0)
(0.0538633 0.00824259 0)
(0.053948 0.0127705 0)
(0.0570383 0.02078 0)
(0.0633524 0.0306471 0)
(0.0742751 0.0396315 0)
(0.0890368 0.0453245 0)
(0.0997209 0.0436624 0)
(0.103612 0.06515 0)
(-0.103203 0.00402553 0)
(0.136434 -0.10622 0)
(0.205029 0.148081 0)
(-1.36449 0.0260042 0)
(-2.25157 -0.0614672 0)
(-2.58282 -0.138019 0)
(-2.67785 -0.148894 0)
(-2.55593 -0.128421 0)
(-2.4248 -0.107858 0)
(-2.33052 -0.0846439 0)
(-2.24013 -0.062247 0)
(-2.15448 -0.0492622 0)
(-2.07149 -0.0502587 0)
(-1.93795 -0.0705303 0)
(-1.66 -0.117871 0)
(-1.22443 -0.166627 0)
(-0.736269 -0.168376 0)
(-0.298979 -0.121972 0)
(-0.00578171 -0.0241505 0)
(-0.153755 0.043808 0)
(0.208462 -0.0420858 0)
(-1.03585 0.527498 0)
(-2.70227 0.608336 0)
(-3.59606 0.441611 0)
(-3.75255 0.171032 0)
(-2.98861 0.0418183 0)
(-2.42025 -0.0284575 0)
(-2.24071 -0.00777204 0)
(-2.1262 -0.00663193 0)
(-2.04042 -0.0224799 0)
(-1.94585 -0.0464553 0)
(-1.83935 -0.0777323 0)
(-1.69803 -0.118873 0)
(-1.4617 -0.203951 0)
(-1.12221 -0.299955 0)
(-0.749615 -0.307677 0)
(-0.39961 -0.24156 0)
(-0.12484 -0.0936603 0)
(-0.195721 0.0328592 0)
(0.420454 0.118858 0)
(-1.2723 1.14798 0)
(-2.74 1.22568 0)
(-3.29996 0.783595 0)
(-3.36732 -0.130414 0)
(-2.6711 -0.435862 0)
(-2.69571 -0.320202 0)
(-2.33986 -0.174886 0)
(-2.08078 -0.0915485 0)
(-1.92635 -0.0730178 0)
(-1.73885 -0.0704802 0)
(-1.60037 -0.109953 0)
(-1.45743 -0.180424 0)
(-1.22792 -0.307817 0)
(-0.954492 -0.433341 0)
(-0.677561 -0.439666 0)
(-0.394093 -0.369847 0)
(-0.150765 -0.210063 0)
(-0.221247 0.160909 0)
(0.9683 0.552684 0)
(-0.733637 1.65956 0)
(-1.94102 1.71868 0)
(-2.06379 0.76947 0)
(-2.3815 -0.166853 0)
(-2.50453 -0.387434 0)
(-2.59585 -0.354686 0)
(-2.29434 -0.328622 0)
(-1.89929 -0.290921 0)
(-1.44876 -0.257169 0)
(-1.21514 -0.231092 0)
(-1.32927 -0.141648 0)
(-1.19599 -0.227279 0)
(-0.984046 -0.396381 0)
(-0.756392 -0.543614 0)
(-0.565854 -0.547546 0)
(-0.338757 -0.4779 0)
(-0.136009 -0.316061 0)
(-0.0131153 -0.0903957 0)
(0.999067 0.0819185 0)
(0.776169 2.32707 0)
(-0.973471 2.12342 0)
(-0.954947 1.09634 0)
(-1.78707 0.0267248 0)
(-2.21291 -0.316202 0)
(-2.30517 -0.405996 0)
(-2.09145 -0.458365 0)
(-1.7533 -0.428263 0)
(-1.36211 -0.353313 0)
(-0.994108 -0.278492 0)
(-0.856323 -0.225423 0)
(-0.925693 -0.259475 0)
(-0.756091 -0.477335 0)
(-0.55446 -0.630822 0)
(-0.439273 -0.627068 0)
(-0.264919 -0.559529 0)
(-0.110502 -0.403105 0)
(0.105819 -0.188118 0)
(0.30907 -0.158384 0)
(1.41335 1.97097 0)
(-0.156079 2.52168 0)
(-0.250792 1.45222 0)
(-1.14663 0.280121 0)
(-1.80955 -0.187221 0)
(-1.92699 -0.422894 0)
(-1.8031 -0.5647 0)
(-1.52929 -0.573038 0)
(-1.21186 -0.502246 0)
(-0.912503 -0.391574 0)
(-0.76131 -0.288619 0)
(-0.6827 -0.232073 0)
(-0.548802 -0.55708 0)
(-0.369019 -0.700889 0)
(-0.312793 -0.682194 0)
(-0.189057 -0.616379 0)
(-0.0826377 -0.469199 0)
(0.167174 -0.270911 0)
(0.204797 -0.288844 0)
(1.23244 1.67192 0)
(0.688101 2.90909 0)
(0.47572 1.67147 0)
(-0.453181 0.617494 0)
(-1.33223 -0.00106607 0)
(-1.49542 -0.40723 0)
(-1.45501 -0.641695 0)
(-1.24502 -0.687228 0)
(-0.99292 -0.617909 0)
(-0.768358 -0.493178 0)
(-0.704667 -0.3383 0)
(-0.436233 -0.217351 0)
(-0.337905 -0.635772 0)
(-0.207172 -0.753914 0)
(-0.193209 -0.717072 0)
(-0.11781 -0.65188 0)
(-0.0524822 -0.51649 0)
(0.231645 -0.324372 0)
(0.172281 -0.354763 0)
(0.848038 1.5934 0)
(1.33266 3.18965 0)
(1.18229 2.01758 0)
(0.272737 1.02634 0)
(-0.815179 0.238575 0)
(-1.02214 -0.37035 0)
(-1.05509 -0.702134 0)
(-0.91541 -0.782736 0)
(-0.727882 -0.711033 0)
(-0.557223 -0.576879 0)
(-0.568306 -0.422014 0)
(-0.182817 -0.25951 0)
(-0.122468 -0.678933 0)
(-0.0683104 -0.78365 0)
(-0.0856426 -0.734838 0)
(-0.0540239 -0.669315 0)
(-0.0213991 -0.545548 0)
(0.0522634 -0.0420515 0)
(0.105307 -0.0595944 0)
(0.117045 -0.0541019 0)
(0.111 -0.0463003 0)
(0.103592 -0.0404818 0)
(0.0973746 -0.0349202 0)
(0.0918511 -0.0284772 0)
(0.086445 -0.0213709 0)
(0.0806063 -0.0144084 0)
(0.0742974 -0.00860374 0)
(0.0681262 -0.00435773 0)
(0.0623604 -0.000537613 0)
(0.0565642 0.00328976 0)
(0.0504898 0.00658311 0)
(0.0450697 0.00840791 0)
(0.0419735 0.0093451 0)
(0.0428642 0.0110671 0)
(0.0475425 0.0167243 0)
(0.0559076 0.0234954 0)
(0.0701965 0.0285021 0)
(0.0910747 0.031723 0)
(0.116133 0.0330908 0)
(0.158376 0.0557779 0)
(0.0848241 -0.0887734 0)
(0.0997002 -0.0474706 0)
(0.0903734 -0.038471 0)
(0.0780822 -0.0337369 0)
(0.0783409 -0.0307501 0)
(0.0766856 -0.0265468 0)
(0.0733892 -0.0211116 0)
(0.0699521 -0.014594 0)
(0.0663063 -0.0078967 0)
(0.0620863 -0.00293813 0)
(0.0567151 -0.000493357 0)
(0.0498918 0.00267047 0)
(0.0430193 0.00727948 0)
(0.0363638 0.0114909 0)
(0.0303309 0.0130153 0)
(0.0269113 0.0109498 0)
(0.0288602 0.00704677 0)
(0.0347144 0.00928204 0)
(0.0435292 0.0112171 0)
(0.0587078 0.0090604 0)
(0.0800039 0.00608608 0)
(0.103991 -0.00186146 0)
(0.139053 -0.0179975 0)
(-0.00396686 -0.300662 0)
(0.036804 -0.108688 0)
(0.0613908 -0.00382379 0)
(0.0777281 -0.0221169 0)
(0.0790686 -0.0248398 0)
(0.0757334 -0.0197552 0)
(0.0709792 -0.0159905 0)
(0.0662418 -0.0111285 0)
(0.062301 -0.00511861 0)
(0.0585506 0.000643916 0)
(0.0472156 0.0037606 0)
(0.0284187 0.00813183 0)
(0.0182523 0.0124589 0)
(0.0142334 0.01543 0)
(0.0134905 0.0143182 0)
(0.0170058 0.00862723 0)
(0.0226539 0.00271034 0)
(0.0277925 0.00447315 0)
(0.0364914 0.000669154 0)
(0.0527281 -0.0115374 0)
(0.0741924 -0.0184521 0)
(0.0974033 -0.0283892 0)
(0.126417 -0.0472837 0)
(-0.0513639 -0.168563 0)
(-0.0237933 -0.112478 0)
(0.0109377 -0.072088 0)
(0.0437363 -0.0524498 0)
(0.0662917 -0.0352298 0)
(0.082455 -0.0195486 0)
(0.0936374 -0.00804075 0)
(0.0998273 5.53735e-05 0)
(0.099887 0.00772647 0)
(0.0925906 0.0210679 0)
(0.0795677 0.0481253 0)
(0.0524497 0.0465508 0)
(0.0254021 0.0198039 0)
(0.0167045 0.0170902 0)
(0.0122524 0.0157214 0)
(0.0112184 0.00708277 0)
(0.0100773 -0.00438129 0)
(0.0177047 -0.00264593 0)
(0.0377 -0.0107772 0)
(0.0597089 -0.0257314 0)
(0.0786002 -0.0330844 0)
(0.0978171 -0.046729 0)
(0.120631 -0.072612 0)
(-0.0177755 -0.142537 0)
(-0.0166064 -0.129793 0)
(0.00357029 -0.100018 0)
(0.0277015 -0.0784492 0)
(0.0498634 -0.0601391 0)
(0.0693442 -0.0440717 0)
(0.085643 -0.0298307 0)
(0.0980966 -0.0160984 0)
(0.106763 -0.000655921 0)
(0.112523 0.0194374 0)
(0.119269 0.0450082 0)
(0.12422 0.0613648 0)
(0.119993 0.054473 0)
(0.107044 0.0371268 0)
(0.0923686 0.0301321 0)
(0.0573805 0.0128417 0)
(0.0298632 -0.00569966 0)
(0.0246057 -0.00986671 0)
(0.0461688 -0.0206992 0)
(0.0614579 -0.0417828 0)
(0.0766854 -0.0474015 0)
(0.101196 -0.0614104 0)
(0.126699 -0.0848334 0)
(-0.00590289 -0.147154 0)
(-0.00522825 -0.138965 0)
(0.00630003 -0.118423 0)
(0.0227744 -0.0984651 0)
(0.040611 -0.0796425 0)
(0.0583108 -0.0619488 0)
(0.0748582 -0.0451025 0)
(0.0896046 -0.0282752 0)
(0.102621 -0.0102747 0)
(0.115099 0.00939138 0)
(0.129507 0.0294513 0)
(0.144464 0.0421092 0)
(0.15399 0.0446945 0)
(0.156407 0.044981 0)
(0.156958 0.049273 0)
(0.153639 0.0451106 0)
(0.144797 0.0171142 0)
(0.136377 -0.0340571 0)
(0.123322 -0.066132 0)
(0.0982498 -0.0665945 0)
(0.0943551 -0.0623689 0)
(0.121173 -0.0720908 0)
(0.143462 -0.0948716 0)
(-0.00204172 -0.139204 0)
(0.000373194 -0.143625 0)
(0.00885348 -0.130167 0)
(0.0207415 -0.113319 0)
(0.034708 -0.0956551 0)
(0.0496536 -0.0780052 0)
(0.064792 -0.0604963 0)
(0.0796904 -0.0428133 0)
(0.0944432 -0.0245113 0)
(0.109775 -0.00565127 0)
(0.126869 0.0123417 0)
(0.145004 0.0257205 0)
(0.160928 0.0332891 0)
(0.173127 0.0381615 0)
(0.183924 0.041833 0)
(0.193796 0.0384522 0)
(0.199909 0.0241415 0)
(0.19804 0.00378973 0)
(0.189157 -0.0186006 0)
(0.180696 -0.0533592 0)
(0.175013 -0.107182 0)
(0.166284 -0.153259 0)
(0.144959 -0.146164 0)
(0.000833901 -0.141244 0)
(0.00352588 -0.148775 0)
(0.00974321 -0.138901 0)
(0.018574 -0.124626 0)
(0.0295049 -0.108653 0)
(0.0419054 -0.0919984 0)
(0.0552845 -0.075016 0)
(0.0693846 -0.0577339 0)
(0.0842695 -0.0401357 0)
(0.100315 -0.0225406 0)
(0.117949 -0.00598659 0)
(0.136644 0.0075529 0)
(0.154727 0.0171725 0)
(0.17122 0.0237187 0)
(0.186849 0.0272894 0)
(0.201632 0.0251082 0)
(0.213265 0.0152665 0)
(0.219453 -0.000408656 0)
(0.220484 -0.0169316 0)
(0.218428 -0.0367484 0)
(0.211239 -0.0600352 0)
(0.19475 -0.0758493 0)
(0.172592 -0.0698831 0)
(0.00150476 -0.143724 0)
(0.00382148 -0.153009 0)
(0.00852307 -0.145447 0)
(0.0152716 -0.133348 0)
(0.0239441 -0.119183 0)
(0.0342495 -0.103955 0)
(0.0459246 -0.0881274 0)
(0.0588262 -0.0719206 0)
(0.0729787 -0.0555338 0)
(0.0885352 -0.039367 0)
(0.105581 -0.0241978 0)
(0.123708 -0.0111594 0)
(0.141997 -0.000952598 0)
(0.159795 0.00640135 0)
(0.177084 0.0105564 0)
(0.193436 0.010085 0)
(0.207277 0.00406101 0)
(0.217058 -0.00650846 0)
(0.222371 -0.0198326 0)
(0.223 -0.0352935 0)
(0.216974 -0.0512154 0)
(0.203078 -0.060682 0)
(0.185683 -0.0565304 0)
(0.000959731 -0.146051 0)
(0.00249467 -0.156118 0)
(0.00588745 -0.150382 0)
(0.0110351 -0.140174 0)
(0.0179475 -0.12777 0)
(0.0265126 -0.114126 0)
(0.036604 -0.0997396 0)
(0.0481452 -0.0849254 0)
(0.0611322 -0.0699715 0)
(0.0755969 -0.0552774 0)
(0.0914879 -0.041435 0)
(0.108487 -0.0291786 0)
(0.126022 -0.0190687 0)
(0.143584 -0.0114086 0)
(0.160843 -0.00663152 0)
(0.177201 -0.00552254 0)
(0.191509 -0.00852093 0)
(0.202585 -0.01509 0)
(0.209722 -0.0241666 0)
(0.21225 -0.0346327 0)
(0.209116 -0.0443465 0)
(0.20043 -0.0489866 0)
(0.189493 -0.0447198 0)
(-0.000104187 -0.147062 0)
(0.000427077 -0.15802 0)
(0.00262744 -0.153962 0)
(0.00640474 -0.145471 0)
(0.0118328 -0.134751 0)
(0.0188758 -0.122718 0)
(0.0274782 -0.109875 0)
(0.037599 -0.0965695 0)
(0.0492184 -0.0831139 0)
(0.06231 -0.0698744 0)
(0.0767733 -0.0573132 0)
(0.0923501 -0.0459546 0)
(0.108634 -0.0362546 0)
(0.125191 -0.0285662 0)
(0.14159 -0.0232733 0)
(0.157219 -0.0208246 0)
(0.171187 -0.0214071 0)
(0.182562 -0.0246517 0)
(0.190621 -0.0297554 0)
(0.194753 -0.0356123 0)
(0.194486 -0.0404199 0)
(0.190237 -0.0415345 0)
(0.184079 -0.0368431 0)
(-0.00119844 -0.146343 0)
(-0.00170463 -0.158778 0)
(-0.000625079 -0.156303 0)
(0.00190641 -0.149419 0)
(0.00600056 -0.140306 0)
(0.011648 -0.129853 0)
(0.0188265 -0.11856 0)
(0.0275123 -0.106775 0)
(0.0376786 -0.0948071 0)
(0.0492748 -0.0829785 0)
(0.0621874 -0.0716577 0)
(0.0761992 -0.0612408 0)
(0.0909903 -0.0520944 0)
(0.106182 -0.0445345 0)
(0.12134 -0.0388602 0)
(0.135904 -0.0353312 0)
(0.149163 -0.0340029 0)
(0.16038 -0.0345737 0)
(0.168926 -0.0363995 0)
(0.174311 -0.0385312 0)
(0.176294 -0.0396048 0)
(0.175209 -0.037946 0)
(0.172263 -0.0322575 0)
(-0.00204165 -0.144287 0)
(-0.00349894 -0.158377 0)
(-0.00346631 -0.157474 0)
(-0.00207724 -0.152125 0)
(0.000784085 -0.144543 0)
(0.00512474 -0.13561 0)
(0.0109348 -0.125822 0)
(0.0181999 -0.11552 0)
(0.0268922 -0.104991 0)
(0.0369544 -0.094517 0)
(0.0482757 -0.0843938 0)
(0.06067 -0.0749271 0)
(0.0738722 -0.0664049 0)
(0.0875523 -0.059081 0)
(0.101314 -0.0531719 0)
(0.114672 -0.0488244 0)
(0.127054 -0.0460226 0)
(0.137871 -0.0445032 0)
(0.146604 -0.0437402 0)
(0.152853 -0.0429581 0)
(0.156435 -0.0411246 0)
(0.157504 -0.0370791 0)
(0.156684 -0.0298771 0)
(-0.0025847 -0.141173 0)
(-0.00480893 -0.156984 0)
(-0.00569316 -0.15759 0)
(-0.00532837 -0.153691 0)
(-0.00359748 -0.147549 0)
(-0.00047946 -0.140057 0)
(0.00402617 -0.131703 0)
(0.00991222 -0.122818 0)
(0.0171537 -0.113663 0)
(0.0256955 -0.10448 0)
(0.0354375 -0.0955088 0)
(0.04622 -0.0869845 0)
(0.05782 -0.0791274 0)
(0.0699545 -0.0721279 0)
(0.0822798 -0.0661336 0)
(0.0943869 -0.0612181 0)
(0.105813 -0.057325 0)
(0.116087 -0.0542157 0)
(0.124781 -0.0514484 0)
(0.131554 -0.0483822 0)
(0.136215 -0.0441953 0)
(0.138745 -0.0379814 0)
(0.139384 -0.028916 0)
(-0.00284748 -0.137383 0)
(-0.00561762 -0.154809 0)
(-0.00725054 -0.156801 0)
(-0.00776964 -0.154234 0)
(-0.00705062 -0.149424 0)
(-0.00505465 -0.143275 0)
(-0.00177009 -0.136268 0)
(0.0028065 -0.128718 0)
(0.00865657 -0.120861 0)
(0.015731 -0.112902 0)
(0.0239442 -0.105034 0)
(0.0331613 -0.0974367 0)
(0.043196 -0.0902721 0)
(0.0538104 -0.0836755 0)
(0.0647158 -0.0777387 0)
(0.075575 -0.0724857 0)
(0.0860155 -0.0678344 0)
(0.0956574 -0.0635602 0)
(0.104147 -0.0592756 0)
(0.111184 -0.0544254 0)
(0.116552 -0.0483016 0)
(0.120111 -0.0401014 0)
(0.121848 -0.0289973 0)
(-0.00288297 -0.133261 0)
(-0.00598293 -0.152076 0)
(-0.00818312 -0.155278 0)
(-0.00943042 -0.153892 0)
(-0.00958737 -0.150286 0)
(-0.00859363 -0.145368 0)
(-0.00642158 -0.139608 0)
(-0.00305775 -0.1333 0)
(0.00148901 -0.126658 0)
(0.00718088 -0.119853 0)
(0.0139466 -0.113037 0)
(0.0216756 -0.106344 0)
(0.0302148 -0.0998907 0)
(0.0393693 -0.0937649 0)
(0.0489031 -0.0880155 0)
(0.0585441 -0.0826305 0)
(0.0679951 -0.0775093 0)
(0.0769514 -0.0724335 0)
(0.0851207 -0.0670445 0)
(0.0922368 -0.0608311 0)
(0.0980706 -0.053131 0)
(0.102404 -0.043157 0)
(0.10508 -0.0300121 0)
(-0.00275466 -0.129085 0)
(-0.00599917 -0.148998 0)
(-0.00859377 -0.153193 0)
(-0.0104109 -0.152818 0)
(-0.0112973 -0.150272 0)
(-0.0111697 -0.14646 0)
(-0.00998341 -0.141836 0)
(-0.00771305 -0.136673 0)
(-0.0043563 -0.131156 0)
(6.16668e-05 -0.12543 0)
(0.00548517 -0.11961 0)
(0.011826 -0.113795 0)
(0.0189624 -0.108062 0)
(0.0267391 -0.102464 0)
(0.034969 -0.0970143 0)
(0.043438 -0.0916761 0)
(0.0519139 -0.0863337 0)
(0.0601566 -0.0807686 0)
(0.0679285 -0.0746328 0)
(0.0749985 -0.0674287 0)
(0.0811413 -0.058496 0)
(0.0861079 -0.0470138 0)
(0.0896692 -0.0319843 0)
(-0.00252432 -0.125056 0)
(-0.00577262 -0.145749 0)
(-0.00861204 -0.15071 0)
(-0.0108499 -0.151166 0)
(-0.0123189 -0.149529 0)
(-0.0129139 -0.146691 0)
(-0.0125743 -0.143086 0)
(-0.011263 -0.138961 0)
(-0.0089664 -0.134478 0)
(-0.00569722 -0.12975 0)
(-0.00149472 -0.124868 0)
(0.00357396 -0.119897 0)
(0.00941501 -0.114885 0)
(0.0159095 -0.109857 0)
(0.0229149 -0.104801 0)
(0.0302691 -0.0996619 0)
(0.037797 -0.0943114 0)
(0.0453162 -0.0885269 0)
(0.0526406 -0.0819595 0)
(0.0595782 -0.0741053 0)
(0.0659244 -0.0642808 0)
(0.0714328 -0.0516066 0)
(0.0758572 -0.0349753 0)
(-0.00224614 -0.121296 0)
(-0.00540543 -0.142462 0)
(-0.00837132 -0.147969 0)
(-0.010899 -0.14908 0)
(-0.0128119 -0.148201 0)
(-0.0139877 -0.146205 0)
(-0.0143527 -0.143498 0)
(-0.0138594 -0.140303 0)
(-0.0124849 -0.136756 0)
(-0.0102302 -0.132945 0)
(-0.00711947 -0.128935 0)
(-0.00319962 -0.124767 0)
(0.00146126 -0.120467 0)
(0.00677616 -0.116037 0)
(0.0126424 -0.11145 0)
(0.0189445 -0.106635 0)
(0.0255585 -0.101457 0)
(0.0323545 -0.0956869 0)
(0.0391967 -0.088968 0)
(0.0459362 -0.0807794 0)
(0.0524013 -0.0704007 0)
(0.058372 -0.0568851 0)
(0.0636172 -0.0390183 0)
(-0.00196384 -0.117862 0)
(-0.00498494 -0.139223 0)
(-0.00799229 -0.145081 0)
(-0.0107023 -0.146686 0)
(-0.0129357 -0.146426 0)
(-0.0145598 -0.145143 0)
(-0.0154919 -0.143217 0)
(-0.0156779 -0.140842 0)
(-0.0150872 -0.13813 0)
(-0.0137112 -0.135149 0)
(-0.011561 -0.13194 0)
(-0.00866585 -0.128527 0)
(-0.0050704 -0.124918 0)
(-0.000832319 -0.121099 0)
(0.00398022 -0.117034 0)
(0.00929284 -0.112645 0)
(0.0150278 -0.107789 0)
(0.0211037 -0.102234 0)
(0.0274332 -0.0956112 0)
(0.0339132 -0.0873785 0)
(0.0404127 -0.0767726 0)
(0.0467515 -0.0627778 0)
(0.0527288 -0.0440807 0)
(-0.00170872 -0.114754 0)
(-0.00457726 -0.13608 0)
(-0.00757235 -0.142128 0)
(-0.0103821 -0.144091 0)
(-0.0128322 -0.144323 0)
(-0.0147866 -0.143635 0)
(-0.0161599 -0.142376 0)
(-0.0168947 -0.140713 0)
(-0.0169562 -0.138737 0)
(-0.0163286 -0.136494 0)
(-0.0150126 -0.134011 0)
(-0.0130222 -0.131296 0)
(-0.0103823 -0.128345 0)
(-0.00712493 -0.125137 0)
(-0.00328686 -0.121628 0)
(0.00109367 -0.117738 0)
(0.00597918 -0.113325 0)
(0.0113331 -0.108152 0)
(0.0171145 -0.101841 0)
(0.0232662 -0.0938249 0)
(0.0297018 -0.0832971 0)
(0.0362863 -0.0691741 0)
(0.042853 -0.0500517 0)
(-0.00149752 -0.111937 0)
(-0.00422419 -0.133046 0)
(-0.00717979 -0.139164 0)
(-0.0100307 -0.141376 0)
(-0.0126147 -0.141996 0)
(-0.0147997 -0.141797 0)
(-0.0165033 -0.141099 0)
(-0.0176699 -0.140044 0)
(-0.0182636 -0.138703 0)
(-0.0182645 -0.137107 0)
(-0.0176657 -0.135268 0)
(-0.0164694 -0.133186 0)
(-0.0146836 -0.130849 0)
(-0.0123194 -0.128233 0)
(-0.00938677 -0.125295 0)
(-0.00589212 -0.121955 0)
(-0.00183635 -0.118076 0)
(0.00278353 -0.113419 0)
(0.00796944 -0.1076 0)
(0.0137096 -0.100028 0)
(0.0199616 -0.0898507 0)
(0.0266374 -0.0759205 0)
(0.0336015 -0.056749 0)
(-0.00133138 -0.109359 0)
(-0.00394402 -0.130114 0)
(-0.0068532 -0.136219 0)
(-0.00970789 -0.138603 0)
(-0.0123633 -0.139526 0)
(-0.014698 -0.139725 0)
(-0.0166386 -0.139491 0)
(-0.0181356 -0.138947 0)
(-0.0191558 -0.138143 0)
(-0.0196788 -0.1371 0)
(-0.0196926 -0.135821 0)
(-0.0191909 -0.134299 0)
(-0.0181692 -0.132521 0)
(-0.0166213 -0.130464 0)
(-0.0145356 -0.128088 0)
(-0.0118919 -0.125324 0)
(-0.00865989 -0.122039 0)
(-0.00480028 -0.118001 0)
(-0.000271522 -0.112817 0)
(0.00495617 -0.105876 0)
(0.0108835 -0.0962838 0)
(0.0174672 -0.0828256 0)
(0.0246003 -0.0639354 0)
(-0.00119885 -0.106964 0)
(-0.00373617 -0.12726 0)
(-0.00660528 -0.133305 0)
(-0.00944294 -0.135811 0)
(-0.012125 -0.136975 0)
(-0.0145463 -0.137497 0)
(-0.0166476 -0.137643 0)
(-0.0183899 -0.137517 0)
(-0.0197464 -0.137156 0)
(-0.0206988 -0.136573 0)
(-0.0212338 -0.135766 0)
(-0.0213397 -0.134725 0)
(-0.0210032 -0.133439 0)
(-0.0202055 -0.13189 0)
(-0.0189184 -0.13005 0)
(-0.0171009 -0.127859 0)
(-0.0146969 -0.125199 0)
(-0.0116364 -0.121844 0)
(-0.00784188 -0.117402 0)
(-0.0032439 -0.11124 0)
(0.00219945 -0.102422 0)
(0.00848713 -0.0896696 0)
(0.0155394 -0.0713397 0)
(-0.00108311 -0.104709 0)
(-0.00358886 -0.124457 0)
(-0.00642992 -0.130423 0)
(-0.00924026 -0.133027 0)
(-0.0119177 -0.13439 0)
(-0.0143775 -0.135176 0)
(-0.0165789 -0.135627 0)
(-0.0184966 -0.135833 0)
(-0.0201134 -0.135826 0)
(-0.0214162 -0.135611 0)
(-0.022393 -0.135184 0)
(-0.0230301 -0.134539 0)
(-0.0233093 -0.133669 0)
(-0.0232039 -0.132565 0)
(-0.0226744 -0.131211 0)
(-0.021665 -0.129565 0)
(-0.0201 -0.127526 0)
(-0.0178844 -0.124884 0)
(-0.0149098 -0.121248 0)
(-0.0110698 -0.11597 0)
(-0.00628209 -0.108074 0)
(-0.000505363 -0.0962164 0)
(0.00620944 -0.0786761 0)
(-0.0009735 -0.102564 0)
(-0.00348731 -0.121675 0)
(-0.00631021 -0.127566 0)
(-0.00908686 -0.130267 0)
(-0.011737 -0.131806 0)
(-0.0141988 -0.132809 0)
(-0.0164523 -0.1335 0)
(-0.0184887 -0.133963 0)
(-0.0203023 -0.134223 0)
(-0.0218875 -0.134286 0)
(-0.0232363 -0.13415 0)
(-0.0243364 -0.133811 0)
(-0.025168 -0.133272 0)
(-0.0257011 -0.132534 0)
(-0.0258907 -0.131598 0)
(-0.025672 -0.130444 0)
(-0.0249567 -0.128991 0)
(-0.0236314 -0.127051 0)
(-0.0215624 -0.124243 0)
(-0.0186101 -0.119909 0)
(-0.0146517 -0.11304 0)
(-0.00960015 -0.102225 0)
(-0.00347404 -0.0856632 0)
(-0.000873828 -0.100508 0)
(-0.00341884 -0.118898 0)
(-0.00622439 -0.124733 0)
(-0.00895902 -0.127544 0)
(-0.0115632 -0.129247 0)
(-0.0139983 -0.130433 0)
(-0.016266 -0.131311 0)
(-0.0183745 -0.131961 0)
(-0.0203312 -0.132409 0)
(-0.0221394 -0.132664 0)
(-0.0237974 -0.132728 0)
(-0.0252966 -0.132604 0)
(-0.0266194 -0.132304 0)
(-0.0277367 -0.131843 0)
(-0.0286028 -0.131241 0)
(-0.0291509 -0.1305 0)
(-0.029287 -0.129568 0)
(-0.028887 -0.128282 0)
(-0.0277985 -0.12628 0)
(-0.025853 -0.122907 0)
(-0.0228877 -0.117123 0)
(-0.018766 -0.107462 0)
(-0.0134614 -0.092038 0)
(-0.000797677 -0.0985213 0)
(-0.00337154 -0.116123 0)
(-0.00614819 -0.121931 0)
(-0.00882732 -0.124872 0)
(-0.0113679 -0.126737 0)
(-0.0137529 -0.128078 0)
(-0.016004 -0.129098 0)
(-0.018146 -0.129874 0)
(-0.0201991 -0.130438 0)
(-0.0221767 -0.130803 0)
(-0.0240846 -0.13098 0)
(-0.0259202 -0.13098 0)
(-0.0276709 -0.130825 0)
(-0.0293122 -0.130545 0)
(-0.0308027 -0.130178 0)
(-0.0320795 -0.129752 0)
(-0.0330508 -0.129246 0)
(-0.0335899 -0.12853 0)
(-0.0335339 -0.127272 0)
(-0.0326911 -0.12483 0)
(-0.0308604 -0.120149 0)
(-0.0278509 -0.111715 0)
(-0.023575 -0.0975659 0)
(-0.000752636 -0.0965847 0)
(-0.00332861 -0.113363 0)
(-0.00605494 -0.119176 0)
(-0.00866064 -0.122268 0)
(-0.0111205 -0.124294 0)
(-0.0134356 -0.12577 0)
(-0.0156445 -0.126893 0)
(-0.0177866 -0.127742 0)
(-0.0198942 -0.128357 0)
(-0.0219907 -0.12876 0)
(-0.0240904 -0.128968 0)
(-0.026198 -0.129005 0)
(-0.028308 -0.1289 0)
(-0.0304032 -0.1287 0)
(-0.032451 -0.128461 0)
(-0.0343979 -0.128236 0)
(-0.0361617 -0.128039 0)
(-0.0376224 -0.127778 0)
(-0.0386161 -0.127161 0)
(-0.038936 -0.125574 0)
(-0.0383465 -0.121971 0)
(-0.0365993 -0.114804 0)
(-0.033529 -0.102045 0)
(-0.000728569 -0.0946833 0)
(-0.00326593 -0.110646 0)
(-0.00591804 -0.116492 0)
(-0.00843139 -0.11975 0)
(-0.0107945 -0.121935 0)
(-0.0130224 -0.12353 0)
(-0.0151667 -0.124723 0)
(-0.0172788 -0.125601 0)
(-0.0194017 -0.126212 0)
(-0.021568 -0.126587 0)
(-0.0238006 -0.126754 0)
(-0.0261122 -0.126746 0)
(-0.0285055 -0.126604 0)
(-0.0309726 -0.126385 0)
(-0.0334925 -0.126165 0)
(-0.036026 -0.126019 0)
(-0.0385071 -0.125995 0)
(-0.040832 -0.126046 0)
(-0.0428467 -0.125929 0)
(-0.0443406 -0.12508 0)
(-0.0450512 -0.12248 0)
(-0.0446743 -0.116579 0)
(-0.0429531 -0.105305 0)
(-0.000701574 -0.0928242 0)
(-0.00315992 -0.107998 0)
(-0.00571962 -0.113901 0)
(-0.00812347 -0.117336 0)
(-0.0103747 -0.119678 0)
(-0.0124986 -0.121376 0)
(-0.0145567 -0.122614 0)
(-0.01661 -0.123485 0)
(-0.0187098 -0.124046 0)
(-0.0208972 -0.12434 0)
(-0.0232025 -0.124404 0)
(-0.0256461 -0.12428 0)
(-0.0282391 -0.12402 0)
(-0.0309837 -0.123692 0)
(-0.0338721 -0.123384 0)
(-0.0368824 -0.123193 0)
(-0.0399704 -0.123199 0)
(-0.0430568 -0.1234 0)
(-0.0460094 -0.123614 0)
(-0.0486281 -0.12334 0)
(-0.0506367 -0.12162 0)
(-0.0516839 -0.116936 0)
(-0.0514151 -0.107205 0)
(-0.000657623 -0.0910488 0)
(-0.00300642 -0.105446 0)
(-0.0054641 -0.11142 0)
(-0.00774147 -0.11504 0)
(-0.00986324 -0.117537 0)
(-0.0118635 -0.119327 0)
(-0.0138117 -0.120591 0)
(-0.015776 -0.121427 0)
(-0.0178143 -0.121904 0)
(-0.0199736 -0.122073 0)
(-0.0222902 -0.121985 0)
(-0.024791 -0.121688 0)
(-0.0274943 -0.121244 0)
(-0.0304119 -0.120727 0)
(-0.0335493 -0.120237 0)
(-0.0369029 -0.119886 0)
(-0.0404534 -0.11978 0)
(-0.0441522 -0.119961 0)
(-0.0479006 -0.120311 0)
(-0.051525 -0.120413 0)
(-0.0547554 -0.119398 0)
(-0.0572108 -0.115821 0)
(-0.0584457 -0.107638 0)
(-0.00062373 -0.0894022 0)
(-0.00283809 -0.103003 0)
(-0.00518922 -0.109067 0)
(-0.00731673 -0.112881 0)
(-0.00928263 -0.115535 0)
(-0.0111315 -0.117408 0)
(-0.0129403 -0.118682 0)
(-0.0147823 -0.119463 0)
(-0.0167193 -0.119829 0)
(-0.0188014 -0.119843 0)
(-0.0210683 -0.119566 0)
(-0.0235506 -0.119054 0)
(-0.0262723 -0.118375 0)
(-0.029253 -0.117609 0)
(-0.0325094 -0.11686 0)
(-0.0360552 -0.11625 0)
(-0.0398959 -0.115903 0)
(-0.0440171 -0.1159 0)
(-0.0483619 -0.116186 0)
(-0.0527991 -0.116436 0)
(-0.0570885 -0.115898 0)
(-0.0608485 -0.11325 0)
(-0.0635655 -0.10654 0)
(-0.000683108 -0.0878519 0)
(-0.00272533 -0.100676 0)
(-0.00496561 -0.106862 0)
(-0.00690501 -0.110891 0)
(-0.00867224 -0.113703 0)
(-0.0103289 -0.115652 0)
(-0.01196 -0.116923 0)
(-0.0136418 -0.117631 0)
(-0.0154366 -0.117866 0)
(-0.0173937 -0.117705 0)
(-0.0195521 -0.117215 0)
(-0.0219432 -0.116462 0)
(-0.0245933 -0.115517 0)
(-0.0275271 -0.114462 0)
(-0.0307696 -0.1134 0)
(-0.0343484 -0.112457 0)
(-0.0382909 -0.111767 0)
(-0.0426151 -0.111437 0)
(-0.0473092 -0.111467 0)
(-0.0522967 -0.111629 0)
(-0.0573909 -0.111303 0)
(-0.0622455 -0.109331 0)
(-0.0663213 -0.10392 0)
(-0.000963636 -0.0862555 0)
(-0.00276601 -0.0984601 0)
(-0.00488497 -0.104843 0)
(-0.00657506 -0.109118 0)
(-0.00807828 -0.112092 0)
(-0.00948555 -0.114106 0)
(-0.010891 -0.115354 0)
(-0.012371 -0.115971 0)
(-0.013983 -0.11606 0)
(-0.0157703 -0.11571 0)
(-0.0177667 -0.114997 0)
(-0.0199999 -0.113992 0)
(-0.0224954 -0.112768 0)
(-0.0252791 -0.111405 0)
(-0.0283808 -0.110003 0)
(-0.0318369 -0.108684 0)
(-0.0356909 -0.107584 0)
(-0.0399872 -0.106821 0)
(-0.0447555 -0.106439 0)
(-0.0499774 -0.10629 0)
(-0.0555373 -0.105898 0)
(-0.0611609 -0.10429 0)
(-0.0663394 -0.0998938 0)
(-0.00160387 -0.0844275 0)
(-0.00307799 -0.0963634 0)
(-0.00504212 -0.103075 0)
(-0.00638957 -0.107642 0)
(-0.00753789 -0.110775 0)
(-0.00862341 -0.112828 0)
(-0.00974924 -0.114024 0)
(-0.0109854 -0.114525 0)
(-0.0123775 -0.114452 0)
(-0.0139563 -0.113905 0)
(-0.0157448 -0.112968 0)
(-0.0177632 -0.111714 0)
(-0.0200321 -0.110216 0)
(-0.0225753 -0.108549 0)
(-0.0254233 -0.106808 0)
(-0.0286163 -0.105103 0)
(-0.0322058 -0.103564 0)
(-0.0362534 -0.102311 0)
(-0.0408193 -0.10141 0)
(-0.0459363 -0.10078 0)
(-0.0515645 -0.100064 0)
(-0.057526 -0.0984882 0)
(-0.0634006 -0.0947308 0)
(-0.00274023 -0.0820484 0)
(-0.00378273 -0.0944144 0)
(-0.00550631 -0.101659 0)
(-0.00637877 -0.106574 0)
(-0.00705869 -0.109845 0)
(-0.00774327 -0.111886 0)
(-0.00853819 -0.112982 0)
(-0.00949564 -0.11333 0)
(-0.0106394 -0.113076 0)
(-0.0119802 -0.112328 0)
(-0.0135255 -0.111174 0)
(-0.0152839 -0.109687 0)
(-0.0172685 -0.107935 0)
(-0.0194982 -0.105989 0)
(-0.0220006 -0.103931 0)
(-0.0248144 -0.101861 0)
(-0.0279921 -0.0998962 0)
(-0.0316008 -0.0981488 0)
(-0.0357164 -0.0966903 0)
(-0.0404061 -0.0954787 0)
(-0.0456927 -0.094253 0)
(-0.0514979 -0.0924081 0)