/*--------------------------------*- C++ -*----------------------------------*\
| =========                 |                                                 |
| \\      /  F ield         | OpenFOAM: The Open Source CFD Toolbox           |
|  \\    /   O peration     | Version:  v2012                                 |
|   \\  /    A nd           | Website:  www.openfoam.com                      |
|    \\/     M anipulation  |                                                 |
\*---------------------------------------------------------------------------*/
FoamFile
{
    version     2.0;
    format      ascii;
    class       volScalarField;
    location    "0.2";
    object      alpha.water;
}
// * * * * * * * * * * * * * * * * * * * * * * * * * * * * * * * * * * * * * //

dimensions      [0 0 0 0 0 0 0];


internalField   nonuniform List<scalar> 
2268
(
1
1
1
1
1
1
1
1
1
1
1
1
1
1
1
1
1
1
1
1
1
0.992552
0.864518
1
1
1
1
1
1
1
1
1
1
1
1
1
1
1
1
1
1
1
1
1
1
0.897247
1
1
1
1
1
1
1
1
1
1
1
1
1
1
1
1
1
1
1
1
1
1
0.901989
1
1
1
1
1
1
1
1
1
1
1
1
1
1
1
1
1
1
1
1
1
1
0.918859
1
1
1
1
1
1
1
1
1
1
1
1
1
1
1
1
1
1
1
1
1
1
0.973859
1
1
1
1
1
1
1
1
1
1
1
1
1
1
1
1
1
1
1
1
1
1
1.0002
1
1
1
1
1
1
1
1
1
1
1
1
1
1
1
1
1
1
1
0.999998
0.999994
1
1.00006
1
1
1
1
1
1
1
1
1
1
1
1
1
1
1
1
1
1
1
0.999992
0.999992
0.999999
1
3.03677e-17
2.61304e-17
1.05463e-17
6.73314e-19
4.02037e-21
1.72927e-22
5.10149e-23
5.04157e-24
3.72898e-25
2.1069e-26
9.44457e-28
3.46162e-29
1.03482e-30
2.44857e-32
4.38713e-34
5.52855e-36
4.27726e-38
1.35686e-40
4.79079e-41
2.94029e-16
8.59454e-16
9.59326e-16
2.84981e-16
1.80851e-17
2.79977e-19
6.85256e-21
3.09934e-22
1.55662e-23
6.9402e-25
2.63919e-26
8.41731e-28
2.2013e-29
4.5391e-31
6.99819e-33
7.35316e-35
4.49585e-37
1.08433e-39
5.11865e-41
5.60009e-15
4.86877e-14
1.16341e-13
1.34699e-13
7.31262e-15
5.23984e-17
6.03856e-19
1.35526e-20
4.09406e-22
1.30082e-23
3.90082e-25
1.03706e-26
2.32249e-28
4.13874e-30
5.49551e-32
4.86287e-34
2.80282e-36
9.53092e-39
6.98686e-40
1.78588e-13
2.3049e-12
4.81127e-12
3.4872e-12
1.09578e-13
1.02058e-15
1.65159e-17
3.98669e-19
9.34905e-21
2.16154e-22
4.92101e-24
1.04139e-25
1.91673e-27
2.88063e-29
3.32312e-31
3.04506e-33
2.06458e-35
7.71226e-38
9.61086e-39
2.96068e-12
4.86604e-11
1.05992e-10
9.11319e-12
2.83244e-13
6.39009e-15
1.91666e-16
6.59774e-18
1.49288e-19
2.89238e-21
5.40195e-23
9.4347e-25
1.45428e-26
1.949e-28
2.25424e-30
2.12233e-32
1.45676e-34
5.18535e-37
9.56483e-38
1.40558e-11
1.65377e-10
2.82335e-10
2.32328e-11
4.08593e-13
3.58511e-14
1.32489e-15
4.65442e-17
1.19206e-18
2.52977e-20
4.50241e-22
7.42536e-24
1.14536e-25
1.53535e-27
1.72543e-29
1.55739e-31
1.03924e-33
3.46061e-36
8.37549e-37
1.53202e-10
7.68743e-10
1.38674e-10
1.68333e-12
9.81142e-13
2.1326e-13
4.86197e-15
1.01168e-16
3.03311e-18
8.36739e-20
1.86119e-21
3.29055e-23
5.19373e-25
7.45788e-27
9.11464e-29
8.73388e-31
5.84159e-33
1.79435e-35
6.1709e-36
3.23862e-10
8.88598e-10
4.72714e-11
1.40161e-12
8.893e-13
6.99289e-13
1.33397e-14
6.41522e-18
1.7068e-19
1.08703e-20
2.41134e-21
4.38718e-23
4.58614e-25
5.64874e-27
9.80964e-29
1.3155e-30
9.79187e-33
3.32301e-35
2.85344e-35
1
1
1
1
1
1
1
1
1
1
1
1
1
1
1
1
1
1
1
0.999999
0.999998
0.999999
0.999998
1
1
1
1
1
1
1
1
1
1
1
1
1
1
1
1
1
1
1
1
0.999999
0.999999
0.999999
1
1
1
1
1
1
1
1
1
1
1
1
1
1
0.999999
0.999998
0.999994
0.999993
0.997936
0.995431
0.91175
0.891326
0.985887
1
1
1
1
1
1
1
1
1
1
1
1
0.999999
0.999999
0.999991
0.999955
0.999831
0.993234
0.861768
0.549535
0.216218
0.137257
0.777758
1
1
1
1
1
1
1
1
0.999999
0.999999
0.999998
0.999996
0.999997
0.99998
0.999891
0.999346
0.951482
0.578646
0.118012
0.0105341
0.00320267
0.00441474
0.209325
0.999999
0.999998
0.999998
0.999998
0.999998
0.999998
0.999997
0.999996
0.999994
0.999989
0.999979
0.999973
0.999948
0.999828
0.998731
0.896731
0.34794
0.00355381
0.000517052
0.000299398
0.000473797
0.000673363
0.00427325
0.999991
0.99998
0.999982
0.999984
0.999984
0.999981
0.999976
0.999966
0.999945
0.999907
0.999837
0.999735
0.999611
0.99829
0.873028
0.243451
0.00136221
0.00014794
3.47947e-05
3.37668e-05
5.9069e-05
0.000137123
0.000580518
0.999905
0.999829
0.999845
0.999859
0.999859
0.999841
0.999798
0.999717
0.999563
0.999274
0.998666
0.998123
0.996878
0.886582
0.203018
0.000751037
6.03223e-05
4.37826e-06
2.27355e-06
3.56015e-06
1.04407e-05
2.24174e-05
0.000116689
0.999114
0.998632
0.998756
0.998859
0.99886
0.998726
0.998406
0.99779
0.996686
0.991008
0.947
0.908051
0.804975
0.186984
0.000281158
-6.46855e-06
7.12868e-07
9.40386e-08
1.72907e-07
5.59026e-07
2.05618e-06
5.81756e-06
2.64724e-05
0.919196
0.901617
0.916184
0.930151
0.933364
0.922048
0.891789
0.832816
0.730457
0.560815
0.319198
0.226785
0.0946837
-2.46742e-06
-1.41481e-05
-1.38269e-07
-1.919e-07
7.36078e-08
2.93122e-08
1.25081e-07
5.78049e-07
2.61666e-06
5.56887e-06
0.240196
0.224052
0.24575
0.272453
0.279593
0.255881
0.206133
0.137339
0.0642586
0.00173616
3.90941e-10
1.24827e-08
4.25534e-07
-7.02302e-09
-3.3621e-10
-1.2065e-09
3.53728e-09
6.92807e-08
8.37537e-09
2.8793e-08
1.33249e-07
6.01501e-07
5.59717e-06
-5.06551e-09
-4.55354e-10
-5.78042e-06
-2.20504e-05
-1.0396e-06
-4.25451e-08
-2.18522e-09
-2.73903e-10
-4.44055e-11
1.05002e-11
9.74152e-12
4.03243e-10
1.26655e-08
1.26003e-06
3.61509e-08
2.27039e-09
3.15243e-08
5.99724e-08
4.27006e-09
8.23277e-09
3.19232e-08
1.6698e-07
1.40084e-06
-4.83629e-13
-8.06642e-13
-4.16446e-12
-7.56067e-09
-6.27588e-09
-3.66497e-09
-1.4804e-09
-6.36137e-10
-1.03435e-10
-8.25236e-12
-6.85199e-10
2.01464e-09
8.30991e-06
2.8273e-05
-1.0778e-08
2.98589e-09
1.85202e-08
2.07956e-08
3.20452e-09
4.45606e-09
1.16071e-08
5.26566e-08
6.69928e-07
-6.31362e-13
-1.53855e-12
-7.80185e-12
-9.14119e-09
-8.02114e-09
-4.66646e-09
-2.20432e-09
-7.09022e-10
-1.30066e-27
1.56972e-10
1.98412e-08
8.69915e-07
2.51237e-05
2.96085e-05
-5.8702e-09
1.71958e-09
2.70417e-09
9.58359e-10
2.06417e-09
2.28115e-09
4.77168e-09
2.32419e-08
6.63041e-07
-5.94374e-13
-1.86365e-12
-1.14504e-11
-4.89949e-09
-5.52205e-09
-3.60361e-09
-1.62717e-09
-3.47664e-10
8.54242e-11
4.83201e-09
1.49273e-07
1.19377e-06
1.04338e-05
1.79552e-05
-2.77148e-09
1.48442e-09
1.2662e-09
6.17028e-10
1.04273e-09
9.61312e-10
1.79286e-09
8.87868e-09
2.04969e-07
-4.00204e-13
-1.6948e-12
-1.52338e-11
-7.00332e-10
-2.46669e-09
-1.96783e-09
-7.953e-10
8.85373e-12
1.67774e-09
1.20002e-08
2.42945e-07
3.93047e-07
3.20383e-10
3.16191e-10
1.13541e-09
1.59412e-09
1.21142e-09
5.27598e-10
5.47737e-10
5.58095e-10
4.12589e-10
1.78563e-09
1.14816e-08
-2.11394e-13
-1.354e-12
-1.88265e-11
-3.70626e-10
-1.10432e-09
-7.68684e-10
-2.3057e-10
2.10075e-10
4.75841e-09
1.73956e-08
3.83401e-10
3.23052e-10
2.98335e-10
7.82246e-10
1.60435e-09
1.6002e-09
9.30411e-10
3.24725e-10
2.4984e-10
2.25962e-10
1.0385e-10
2.8994e-10
1.70955e-09
-8.52164e-14
-8.58137e-13
-1.18904e-11
-1.03786e-10
-2.41136e-10
-1.50891e-10
1.12537e-13
6.04126e-10
3.71656e-09
4.46926e-09
6.45033e-10
4.13129e-10
2.88477e-10
5.13487e-10
9.92625e-10
1.0321e-09
4.34772e-10
1.27206e-10
7.61742e-11
5.59137e-11
3.3121e-11
4.30144e-11
2.30338e-10
-1.58332e-14
-9.79397e-14
-4.16015e-13
-1.47408e-12
-2.45573e-12
4.25632e-30
8.27068e-14
2.05996e-10
2.08772e-09
5.09859e-09
6.10191e-09
3.27064e-09
1.73746e-10
6.64649e-11
2.05215e-10
2.51624e-10
1.05611e-10
2.7117e-11
1.37632e-11
8.20095e-12
5.00568e-12
9.2705e-12
4.09958e-11
-3.40565e-18
-5.37715e-17
-3.26896e-16
-3.29297e-16
0
3.53685e-15
-3.62495e-13
1.56276e-11
1.30447e-09
5.90766e-09
6.59347e-09
5.91127e-09
3.13873e-10
3.85343e-14
1.16929e-11
1.83024e-11
1.09787e-11
2.77071e-12
1.38411e-12
7.18849e-13
4.22858e-13
2.12782e-12
1.2855e-11
-2.48378e-18
-4.34689e-17
-3.2756e-16
-1.09363e-15
-1.3301e-31
-2.41211e-16
-4.89857e-15
6.53107e-13
1.64467e-10
1.66693e-09
3.95183e-09
2.16681e-09
4.20171e-10
1.66601e-14
4.15118e-13
6.19045e-13
4.5311e-13
1.42431e-13
7.61155e-14
4.35834e-14
3.17109e-14
1.86927e-13
1.78554e-12
-9.86827e-19
-2.00897e-17
-1.97742e-16
-1.21793e-15
-5.16306e-15
-1.57092e-14
-3.4787e-14
-5.57064e-14
-6.41391e-14
-5.25205e-14
-2.71556e-14
-5.17651e-15
1.3301e-31
1.64548e-14
2.42905e-14
1.64881e-14
9.45871e-15
4.31964e-15
2.86469e-15
2.129e-15
2.29529e-15
1.43974e-14
1.39483e-13
-6.74917e-21
-9.3069e-20
-5.46152e-19
-1.49078e-18
-7.5428e-20
-9.92051e-24
1.84094e-16
2.80919e-15
8.65748e-15
1.20816e-14
1.21867e-14
9.57798e-15
2.1337e-15
5.87566e-16
5.0085e-16
4.44993e-16
1.77284e-16
1.17733e-16
1.05647e-16
9.35182e-17
1.55961e-16
9.92977e-16
9.5129e-15
-1.02692e-23
-9.64118e-23
-3.24034e-22
-1.13216e-22
-6.84597e-29
1.8971e-22
4.71895e-20
1.26833e-17
1.55887e-16
5.15853e-16
7.97566e-16
1.97278e-16
5.68791e-17
2.45931e-17
1.49451e-17
9.71349e-18
4.31772e-18
3.89916e-18
3.91715e-18
3.71346e-18
9.56345e-18
5.87506e-17
5.58099e-16
-2.99831e-43
-3.10709e-38
-8.96581e-32
-1.12348e-29
1.55221e-26
-3.89391e-23
8.04384e-22
1.03401e-19
9.52274e-19
2.80602e-18
4.34222e-18
4.77386e-18
2.59208e-18
9.47344e-19
4.61154e-19
2.43799e-19
1.17413e-19
1.24644e-19
1.26168e-19
1.21426e-19
4.77834e-19
2.89703e-18
2.78543e-17
2.76121e-36
-9.63835e-35
-3.689e-32
-2.86647e-30
-3.14154e-27
1.88701e-27
6.56859e-26
8.01302e-23
4.43804e-21
3.64972e-20
1.02773e-19
1.52292e-19
1.61447e-19
6.90034e-20
1.52036e-20
6.27326e-21
3.53607e-21
3.06795e-21
3.22483e-21
3.39503e-21
1.96512e-20
1.17406e-19
1.18007e-18
-4.91575e-37
-7.65272e-35
-5.76711e-33
-2.87136e-31
3.92155e-32
1.22421e-30
-7.76198e-29
1.29329e-25
2.09643e-23
2.71921e-22
1.00407e-21
1.73362e-21
1.99781e-21
1.28643e-21
4.07544e-22
1.84452e-22
9.57564e-23
5.89836e-23
6.22851e-23
9.05584e-23
6.51665e-22
4.08376e-21
4.25099e-20
7.98345e-43
1.41053e-40
1.16935e-38
6.06691e-37
2.12112e-35
-6.56928e-32
3.20967e-32
7.10797e-30
7.2045e-27
3.49032e-25
3.21996e-24
1.02814e-23
1.69916e-23
1.94974e-23
1.30439e-23
4.13011e-24
1.89995e-24
1.12737e-24
7.41022e-25
1.78992e-24
1.69744e-23
1.17644e-22
1.30967e-21
1.07649e-46
-1.49891e-43
-3.31066e-41
-2.92813e-39
-1.55727e-36
2.70097e-37
8.77484e-36
3.03982e-34
3.52921e-31
2.61e-28
8.46255e-27
6.27378e-26
1.66192e-25
2.31871e-25
2.36525e-25
1.0391e-25
4.08785e-26
1.85654e-26
5.24545e-27
2.32097e-26
3.38757e-25
2.73166e-24
3.57268e-23
-5.16287e-48
-1.02432e-45
-9.69655e-44
-6.01756e-42
3.43489e-42
1.48862e-40
-1.26104e-38
2.74926e-37
8.63574e-36
6.45804e-33
2.14224e-30
7.04366e-29
5.77739e-28
1.66533e-27
2.42834e-27
2.49991e-27
1.00037e-27
2.38313e-28
3.49112e-29
1.41145e-28
4.90111e-27
4.9937e-26
8.63425e-25
2.65717e-54
6.73949e-52
7.08636e-50
3.58689e-48
5.60476e-47
-2.50985e-42
8.54009e-43
4.45422e-41
1.61682e-39
2.53855e-37
6.06068e-34
6.70166e-32
1.48591e-30
8.38983e-30
1.78498e-29
2.17807e-29
1.5417e-29
4.37477e-30
2.21063e-31
1.60695e-30
4.28038e-29
6.81389e-28
1.78436e-26
4.77776e-58
-2.659e-55
-9.17679e-53
-1.14605e-50
-6.59845e-48
7.29394e-48
3.42979e-46
2.27473e-44
8.82589e-43
2.87385e-41
2.53323e-39
4.45295e-36
4.61202e-34
1.16945e-32
7.28424e-32
1.59526e-31
1.90909e-31
1.13116e-31
5.07751e-33
1.46995e-32
3.19356e-31
5.83148e-30
3.15704e-28
-7.74855e-60
-2.16462e-57
-2.85372e-55
-2.46612e-53
8.80503e-54
5.59312e-52
-2.36793e-49
2.26077e-48
1.02939e-46
3.86869e-45
2.27565e-43
7.15727e-40
2.00097e-37
1.38777e-35
2.05165e-34
7.82368e-34
1.18773e-33
1.1599e-33
3.8082e-34
1.09086e-34
3.09801e-33
5.80266e-32
4.77055e-30
1.77018e-66
7.19402e-64
1.32358e-61
1.51988e-59
1.26472e-57
-3.0503e-54
7.19844e-54
6.53663e-52
3.2838e-50
1.48607e-48
6.06016e-47
3.50354e-45
6.55484e-42
1.32136e-39
1.01111e-37
1.60936e-36
6.24093e-36
9.5277e-36
8.54981e-36
6.77204e-37
2.47762e-35
6.01374e-34
6.18418e-32
3.9001e-71
-1.2509e-67
-6.2462e-65
-1.15364e-62
-8.1848e-60
5.96629e-60
4.39297e-58
4.56578e-56
2.79211e-54
1.48936e-52
7.38994e-51
3.36779e-49
5.8526e-47
3.00763e-43
5.80153e-41
2.57641e-39
2.156e-38
5.16786e-38
6.01016e-38
1.3851e-38
1.64782e-37
5.29495e-36
6.89027e-34
-2.11517e-73
-1.03084e-70
-2.13163e-68
-2.82312e-66
4.36957e-66
4.5455e-64
-7.6606e-62
5.30781e-60
3.72977e-58
2.39631e-56
1.43085e-54
7.87163e-53
4.40607e-51
5.11438e-48
3.54347e-45
6.46507e-43
2.37597e-41
1.6844e-40
3.89097e-40
7.43631e-40
9.23195e-40
3.98961e-38
6.60402e-36
4.63766e-80
3.08238e-77
8.66391e-75
1.60304e-72
2.33691e-70
-9.04639e-67
6.18884e-66
6.35024e-64
5.55298e-62
4.43555e-60
3.28782e-58
2.29434e-56
1.49712e-54
1.02085e-52
1.92158e-49
1.27633e-46
1.85952e-44
4.03167e-43
1.87441e-42
3.94437e-42
4.43117e-42
2.60227e-40
5.45348e-38
2.78193e-85
-3.17376e-81
-2.11731e-78
-5.85276e-76
-5.6948e-73
2.94799e-73
4.33904e-71
8.50645e-69
9.73214e-67
1.015e-64
9.80119e-63
8.88894e-61
7.67162e-59
6.27361e-57
1.55183e-54
2.97109e-50
1.25352e-47
6.53424e-46
5.67272e-45
1.54311e-44
1.86042e-44
1.49743e-42
3.89095e-40
-8.37161e-88
-3.39015e-85
-8.6034e-83
-1.70492e-80
1.71013e-80
3.96815e-78
9.87783e-76
2.13724e-73
3.48371e-71
5.15899e-69
7.04777e-67
9.01199e-65
1.09317e-62
1.2731e-60
1.42044e-58
2.09002e-56
2.20846e-52
1.13069e-49
7.15517e-48
5.94871e-47
7.32549e-47
7.85307e-45
2.40151e-42
1.59835e-96
3.37647e-94
9.55615e-92
2.18872e-89
5.38461e-87
-1.77908e-81
2.10424e-81
8.08492e-79
2.23412e-76
5.58164e-74
1.28075e-71
2.73991e-69
5.54037e-67
1.07175e-64
2.0031e-62
3.61041e-60
1.38205e-57
2.75439e-53
8.07155e-51
1.73289e-49
2.30856e-48
3.97944e-47
1.29435e-44
4.17819e-107
-7.78619e-100
-1.83055e-96
-1.39822e-93
-6.0931e-90
-3.83253e-93
1.20939e-90
2.47919e-87
3.31784e-84
2.73494e-81
1.95902e-78
1.27506e-75
7.74196e-73
4.46273e-70
2.47054e-67
1.31948e-64
6.78786e-62
2.66821e-58
2.4775e-54
2.78948e-52
1.04661e-50
2.19101e-49
6.62648e-47
-1.16478e-110
-2.58988e-108
-1.27825e-105
-1.0599e-102
-1.27253e-103
-5.76956e-103
-2.09404e-96
-3.43725e-97
-3.90124e-94
-4.0102e-91
-3.61683e-88
-2.86733e-85
-2.02322e-82
-1.2893e-79
-7.52145e-77
-4.06213e-74
-2.04674e-71
8.33433e-67
3.42737e-60
6.10597e-56
2.05783e-53
1.04572e-51
3.01213e-49
0.999975
0.287289
4.70395e-10
4.41275e-10
0.999982
0.84723
0.14203
-9.53505e-05
0.999958
0.992447
0.51287
0.0419741
0.992444
0.960876
0.889385
0.239875
0.836169
0.934749
0.901961
0.391006
0.316049
0.841392
0.854255
0.755402
0.00678362
0.341428
0.811675
0.73531
0.00133454
0.0112895
0.43933
0.662207
0.000232382
0.00255103
0.0280118
0.364146
4.95064e-05
0.000515449
0.00410605
0.0388302
8.94249e-05
0.000224227
0.00105662
0.00512863
2.83371e-05
0.000207608
0.000715855
0.00137985
1.0787e-05
8.40058e-05
0.000194987
0.000393693
4.97813e-06
1.25783e-05
3.35659e-05
6.80068e-05
6.36785e-07
1.57138e-06
4.22096e-06
9.50291e-06
6.87393e-08
2.06323e-07
5.82153e-07
1.31957e-06
9.45012e-09
2.74655e-08
7.40491e-08
1.68423e-07
1.1495e-09
3.32267e-09
8.64839e-09
1.91093e-08
1.28659e-10
3.59631e-10
9.27303e-10
1.95306e-09
1.58453e-11
4.18377e-11
1.13849e-10
2.0763e-10
4.76736e-12
1.14733e-11
2.00275e-11
2.15477e-11
5.03888e-13
1.53461e-12
3.40516e-12
4.2532e-12
3.06831e-14
1.02629e-13
2.74896e-13
4.07146e-13
1.70076e-15
5.84424e-15
1.57302e-14
2.25457e-14
8.07412e-17
2.94172e-16
8.20312e-16
1.14733e-15
3.23125e-18
1.27455e-17
3.77018e-17
5.25992e-17
1.2268e-19
4.64251e-19
1.52233e-18
2.14393e-18
4.03958e-21
1.43998e-20
5.4075e-20
7.78402e-20
1.13792e-22
4.27348e-22
1.66243e-21
2.52433e-21
2.75211e-24
1.12103e-23
4.50387e-23
7.33222e-23
5.69825e-26
2.56e-25
1.0825e-24
1.91256e-24
1.00648e-27
5.09252e-27
2.30819e-26
4.42774e-26
1.50559e-29
8.83254e-29
4.38637e-28
9.2473e-28
1.87897e-31
1.33496e-30
7.45623e-30
1.74037e-29
1.89253e-33
1.75461e-32
1.13623e-31
2.96216e-31
1.4046e-35
1.99627e-34
1.60117e-33
4.55692e-33
1.36584e-37
1.93893e-36
2.07201e-35
6.41399e-35
1.33e-39
1.58355e-38
2.46153e-37
8.35569e-37
1.21879e-41
1.04965e-40
2.72725e-39
1.02161e-38
1.08408e-43
9.39022e-43
2.8799e-41
1.19508e-40
9.95933e-46
1.0714e-44
3.02943e-43
1.28267e-42
2.49438e-47
9.95967e-46
1.16285e-44
9.96758e-44
4.46561e-10
7.65802e-10
2.65431e-11
5.18879e-12
2.54167e-12
1.29757e-12
2.30234e-13
6.90225e-15
1.71183e-16
5.11974e-18
1.43352e-19
3.35759e-21
6.3549e-23
9.29884e-25
1.03964e-26
9.07387e-29
5.5663e-31
1.25824e-33
2.84552e-34
-1.32854e-06
6.04939e-10
3.53125e-10
1.97629e-11
1.08883e-11
1.43917e-12
6.55767e-13
9.74976e-14
1.35532e-15
2.94195e-17
7.42904e-19
1.7792e-20
3.75848e-22
6.58411e-24
9.30019e-26
9.96376e-28
7.07688e-30
1.87182e-32
2.22802e-33
0.00010463
-7.06605e-06
7.36926e-10
1.63156e-10
1.33121e-10
1.5109e-11
1.05306e-12
5.81791e-13
2.63232e-14
2.46839e-16
2.80962e-18
4.27171e-20
7.52588e-22
1.32042e-23
2.0353e-25
2.49215e-27
2.19876e-29
1.07064e-31
5.90111e-33
0.000996913
-8.0743e-05
1.30555e-08
5.97459e-10
8.85999e-10
1.43867e-10
5.49506e-12
7.99472e-13
4.90797e-13
8.86971e-15
7.09762e-17
5.35472e-19
3.97774e-21
2.97566e-23
2.89152e-25
3.01668e-27
2.58964e-29
1.43932e-31
6.3185e-33
0.00894148
-0.000128857
9.4698e-08
4.28505e-06
1.20009e-08
1.4319e-09
4.81093e-11
2.00428e-12
2.40723e-12
1.85193e-13
2.26224e-15
1.77689e-17
1.30937e-19
9.74146e-22
5.55866e-24
2.30362e-26
4.81938e-29
3.30466e-32
6.57567e-33
0.0634886
0.000111859
-1.26068e-05
1.87471e-05
1.7605e-07
1.61219e-08
4.68793e-10
1.59569e-11
4.56615e-12
1.14876e-12
4.46642e-14
3.29859e-16
1.71532e-18
8.66417e-21
3.31653e-23
1.08161e-25
4.73683e-28
1.12494e-30
2.42416e-32
0.0833503
0.000432351
2.11082e-05
2.75346e-05
2.11981e-05
4.36649e-06
2.20796e-08
7.64051e-10
2.42377e-11
2.10099e-12
6.15505e-13
1.55465e-14
1.28763e-16
5.35052e-19
2.55079e-21
4.89081e-24
2.28873e-26
5.64027e-29
1.12494e-30
0.33145
0.00208701
0.000178617
3.48507e-05
8.17905e-05
1.73565e-05
7.65172e-08
6.30335e-09
2.99029e-10
1.32482e-11
3.05104e-12
2.15039e-13
3.85938e-15
4.88974e-17
4.95668e-19
3.78462e-21
2.03459e-23
6.72057e-26
1.0715e-28
0.356631
0.0652228
0.00143653
0.000209091
7.04883e-05
1.43975e-05
7.98544e-07
3.92386e-08
2.04776e-09
9.8242e-11
4.19384e-12
7.72806e-13
2.89361e-14
4.24993e-16
5.22473e-18
4.97001e-20
3.39397e-22
1.48437e-24
4.8614e-27
0.194198
0.192379
0.0242566
0.000954187
0.000159323
2.17545e-05
1.95188e-06
1.35845e-07
7.49261e-09
3.28624e-10
1.72357e-11
5.42645e-13
6.16473e-14
1.42597e-15
1.80693e-17
1.90783e-19
1.43028e-21
6.61974e-24
6.63023e-26
0.0330523
0.0701269
0.0420457
0.00404089
0.000242474
3.33704e-05
3.40998e-06
2.64102e-07
1.58912e-08
7.54887e-10
3.01684e-11
1.16805e-12
6.69951e-14
1.76278e-15
2.58984e-17
2.84879e-19
2.18456e-21
9.35726e-24
4.98064e-25
0.00324053
0.0034217
0.0106634
0.0038628
0.000112335
1.4545e-05
1.50311e-06
1.20474e-07
7.6174e-09
3.83096e-10
1.6172e-11
6.11092e-13
3.43596e-14
8.58924e-16
1.3612e-17
1.65298e-19
1.38881e-21
6.61721e-24
3.12395e-25
0.000693196
0.00077117
0.000412908
0.000501675
4.88111e-05
2.80201e-06
2.66483e-07
2.04304e-08
1.26885e-09
6.40084e-11
3.14221e-12
1.98059e-13
7.75027e-15
1.68232e-16
2.80878e-18
3.62951e-20
3.58722e-22
2.28075e-24
5.02609e-26
0.000125052
0.00014493
7.33205e-05
2.15064e-05
4.81446e-06
4.89814e-07
4.31852e-08
3.20327e-09
1.9289e-10
1.12209e-11
7.02864e-13
4.58512e-14
1.33431e-15
2.82239e-17
4.92894e-19
6.65804e-21
6.55097e-23
4.10756e-25
6.62238e-27
1.95098e-05
2.3034e-05
1.10889e-05
3.0576e-06
5.6885e-07
6.69654e-08
5.94782e-09
4.27956e-10
2.94249e-11
1.88654e-12
1.84652e-13
7.05965e-15
1.80464e-16
3.99414e-18
7.12553e-20
9.90395e-22
1.01091e-23
6.69205e-26
7.10788e-28
2.67555e-06
3.16325e-06
1.45102e-06
3.78255e-07
6.68262e-08
8.28834e-09
7.06917e-10
5.73972e-11
4.37311e-12
5.14213e-13
2.47709e-14
7.60848e-16
2.06371e-17
4.61473e-19
8.34213e-21
1.18154e-22
1.23907e-24
8.54474e-27
6.34891e-29
3.25439e-07
3.81273e-07
1.67292e-07
4.12524e-08
6.9428e-09
8.71094e-10
8.69714e-11
7.54493e-12
1.02402e-12
6.10574e-14
2.21524e-15
7.21261e-17
1.95867e-18
4.38983e-20
7.98633e-22
1.14418e-23
1.22127e-25
8.65235e-28
4.86024e-30
3.52692e-08
4.07709e-08
1.72552e-08
4.00372e-09
6.41477e-10
8.78733e-11
9.61396e-12
1.49089e-12
1.07933e-13
4.67742e-15
1.81117e-16
5.87145e-18
1.58699e-19
3.5513e-21
6.47628e-23
9.34419e-25
1.00991e-26
7.29736e-29
3.26501e-31
3.4411e-09
3.89605e-09
1.60125e-09
3.49703e-10
6.00949e-11
8.4951e-12
1.59257e-12
1.40674e-13
7.35583e-15
3.38379e-16
1.29979e-17
4.17384e-19
1.12037e-20
2.49801e-22
4.55647e-24
6.60513e-26
7.20859e-28
5.29102e-30
1.96236e-32
3.0112e-10
3.34126e-10
1.34104e-10
3.22444e-11
5.48025e-12
1.25677e-12
1.35993e-13
8.73124e-15
4.79849e-16
2.18345e-17
8.2784e-19
2.62981e-20
7.00348e-22
1.5544e-23
2.83325e-25
4.12215e-27
4.5369e-29
3.3744e-31
1.21504e-33
3.03144e-11
3.04644e-11
1.22722e-11
2.77919e-12
7.40301e-13
9.80817e-14
7.85151e-15
5.21399e-16
2.82652e-17
1.26595e-18
4.73447e-20
1.48748e-21
3.92963e-23
8.68155e-25
1.58125e-26
2.30886e-28
2.56205e-30
1.92904e-32
7.03854e-35
3.43887e-12
2.53729e-12
1.30863e-12
3.38527e-13
5.31701e-14
5.30935e-15
4.33567e-16
2.83605e-17
1.51015e-18
6.65711e-20
2.45662e-21
7.63708e-23
2.00257e-24
4.40672e-26
8.02599e-28
1.17691e-29
1.31736e-31
1.00392e-33
3.68991e-36
3.84143e-13
3.09612e-13
1.10047e-13
2.2701e-14
2.81522e-15
2.76693e-16
2.19658e-17
1.40787e-18
7.37365e-20
3.20239e-21
1.16723e-22
3.59436e-24
9.36573e-26
2.05526e-27
3.74764e-29
5.52551e-31
6.24569e-33
4.81978e-35
1.77513e-37
2.38389e-14
2.00204e-14
6.16625e-15
1.14981e-15
1.45407e-16
1.36886e-17
1.03119e-18
6.42985e-20
3.31258e-21
1.42037e-22
5.12149e-24
1.56463e-25
4.05764e-27
8.89376e-29
1.62619e-30
2.41455e-32
2.76028e-34
2.15946e-36
7.94506e-39
1.16426e-15
9.57498e-16
2.99731e-16
5.61433e-17
6.99919e-18
6.41877e-19
4.611e-20
2.74394e-21
1.38053e-22
5.84914e-24
2.0915e-25
6.35132e-27
1.64243e-28
3.6024e-30
6.61706e-32
9.91196e-34
1.148e-35
9.1184e-38
3.34373e-40
5.28062e-17
4.35637e-17
1.35573e-17
2.53576e-18
3.13664e-19
2.82845e-20
1.97891e-21
1.12715e-22
5.43345e-24
2.25453e-25
8.00478e-27
2.42272e-28
6.26035e-30
1.3768e-31
2.54551e-33
3.85408e-35
4.53057e-37
3.65885e-39
1.33373e-41
2.15814e-18
1.80341e-18
5.63038e-19
1.0597e-19
1.31182e-20
1.17279e-21
8.07009e-23
4.48672e-24
2.08593e-25
8.30504e-27
2.90214e-28
8.74321e-30
2.26323e-31
5.00159e-33
9.32622e-35
1.42994e-36
1.70915e-38
1.4052e-40
5.07659e-43
7.94776e-20
6.79297e-20
2.15249e-20
4.10998e-21
5.13375e-22
4.58809e-23
3.12897e-24
1.71366e-25
7.80912e-27
3.03015e-28
1.02146e-29
3.0343e-31
7.81399e-33
1.73805e-34
3.27566e-36
5.0959e-38
6.20342e-40
5.19847e-42
1.85223e-44
2.64393e-21
2.33522e-21
7.6041e-22
1.48476e-22
1.88594e-23
1.69789e-24
1.15634e-25
6.28231e-27
2.8283e-28
1.08181e-29
3.58839e-31
1.04285e-32
2.63281e-34
5.86722e-36
1.11369e-37
1.75426e-39
2.17794e-41
1.86181e-43
6.5013e-46
7.96651e-23
7.35298e-23
2.49294e-23
5.0167e-24
6.52706e-25
5.96146e-26
4.08275e-27
2.21533e-28
9.91483e-30
3.76103e-31
1.23713e-32
3.56446e-34
8.9457e-36
1.97768e-37
3.74859e-39
5.94204e-41
7.51492e-43
6.55478e-45
2.24076e-47
2.18064e-24
2.12936e-24
7.61917e-25
1.59244e-25
2.13663e-26
1.99261e-27
1.38093e-28
7.52945e-30
3.36973e-31
1.27457e-32
4.17621e-34
1.19972e-35
3.00858e-37
6.66083e-39
1.27008e-40
2.03616e-42
2.61389e-44
2.32277e-46
7.82103e-49
5.50809e-26
5.65877e-26
2.18121e-26
4.77129e-27
6.6436e-28
6.36347e-29
4.48786e-30
2.4723e-31
1.11219e-32
4.21512e-34
1.38186e-35
3.97233e-37
9.98311e-39
2.22146e-40
4.27297e-42
6.94072e-44
9.06573e-46
8.2117e-48
2.71593e-50
1.27669e-27
1.39182e-27
5.87622e-28
1.35582e-28
1.97075e-29
1.94899e-30
1.40582e-31
7.8623e-33
3.57158e-34
1.36209e-35
4.48514e-37
1.29454e-38
3.26969e-40
7.32755e-42
1.42386e-43
2.34541e-45
3.11918e-47
2.87992e-49
9.34597e-52
2.72941e-29
3.18397e-29
1.49655e-29
3.6711e-30
5.60143e-31
5.74683e-32
4.2584e-33
2.42807e-34
1.11825e-35
4.30735e-37
1.42938e-38
4.15442e-40
1.05713e-41
2.39047e-43
4.69888e-45
7.85538e-47
1.06388e-48
1.00101e-50
3.18654e-53
5.40585e-31
6.81014e-31
3.61912e-31
9.51371e-32
1.53189e-32
1.63747e-33
1.25137e-34
7.30117e-36
3.42092e-37
1.33514e-38
4.478e-40
1.31387e-41
3.37512e-43
7.71325e-45
1.53542e-46
2.60666e-48
3.59552e-50
3.44651e-52
1.07612e-54
9.95487e-33
1.37098e-32
8.347e-33
2.36959e-33
4.04673e-34
4.52436e-35
3.57824e-36
2.14319e-37
1.02467e-38
4.0633e-40
1.38078e-41
4.09848e-43
1.06471e-44
2.46232e-46
4.96817e-48
8.56892e-50
1.2038e-51
1.17512e-53
3.59929e-56
1.71318e-34
2.61603e-34
1.84428e-34
5.69412e-35
1.03619e-35
1.216e-36
9.98328e-38
6.15558e-39
3.0109e-40
1.21601e-41
4.19558e-43
1.26214e-44
3.3207e-46
7.78017e-48
1.59225e-49
2.7909e-51
3.9928e-53
3.96762e-55
1.19245e-57
2.77666e-36
4.76576e-36
3.92292e-36
1.32471e-36
2.57932e-37
3.18723e-38
2.72374e-39
1.73318e-40
8.69295e-42
3.58308e-43
1.25755e-44
3.84015e-46
1.02457e-47
2.43421e-49
5.056e-51
9.00813e-53
1.31219e-54
1.32668e-56
3.91395e-59
4.28492e-38
8.3507e-38
8.0784e-38
2.99308e-38
6.25625e-39
8.16237e-40
7.27831e-41
4.79025e-42
2.46869e-43
1.04043e-44
3.72064e-46
1.15496e-47
3.1285e-49
7.54373e-51
1.59107e-52
2.8819e-54
4.27338e-56
4.39381e-58
1.27289e-60
6.19381e-40
1.46413e-39
1.59077e-39
6.58296e-40
1.48125e-40
2.04489e-41
1.90664e-42
1.30053e-43
6.89972e-45
2.97843e-46
1.08692e-47
3.43444e-49
9.45532e-51
2.31587e-52
4.96236e-54
9.13877e-56
1.37904e-57
1.4411e-59
3.98135e-62
8.35547e-42
2.31787e-41
2.69936e-41
1.24324e-41
3.17042e-42
4.80749e-43
4.77121e-44
3.41212e-45
1.87884e-46
8.35759e-48
3.12726e-49
1.00988e-50
2.83026e-52
7.04727e-54
1.53494e-55
2.87432e-57
4.41146e-59
4.68008e-61
1.24648e-63
4.97877e-43
2.30111e-42
8.07726e-42
1.84962e-42
2.59895e-43
2.50235e-44
1.76242e-45
9.59692e-47
4.23816e-48
1.5788e-49
5.08649e-51
1.42851e-52
3.98761e-54
1.01956e-55
2.2778e-57
4.37359e-59
6.88147e-61
7.47299e-63
1.24648e-63
)
;

boundaryField
{
    leftWall
    {
        type            zeroGradient;
    }
    rightWall
    {
        type            zeroGradient;
    }
    lowerWall
    {
        type            zeroGradient;
    }
    atmosphere
    {
        type            inletOutlet;
        inletValue      uniform 0;
        value           nonuniform List<scalar> 
46
(
0
0
0
0
0
0
0
0
0
0
0
0
0
0
0
0
0
0
0
0
2.05783e-53
1.04572e-51
3.01213e-49
2.49438e-47
9.95967e-46
1.16285e-44
9.96758e-44
4.97877e-43
2.30111e-42
8.07726e-42
1.84962e-42
2.59895e-43
2.50235e-44
1.76242e-45
9.59692e-47
4.23816e-48
1.5788e-49
5.08649e-51
1.42851e-52
3.98761e-54
1.01956e-55
2.2778e-57
4.37359e-59
6.88147e-61
7.47299e-63
1.24648e-63
)
;
    }
    defaultFaces
    {
        type            empty;
    }
}


// ************************************************************************* //
