/*--------------------------------*- C++ -*----------------------------------*\
| =========                 |                                                 |
| \\      /  F ield         | OpenFOAM: The Open Source CFD Toolbox           |
|  \\    /   O peration     | Version:  v2012                                 |
|   \\  /    A nd           | Website:  www.openfoam.com                      |
|    \\/     M anipulation  |                                                 |
\*---------------------------------------------------------------------------*/
FoamFile
{
    version     2.0;
    format      ascii;
    class       surfaceScalarField;
    location    "0.2";
    object      alphaPhi0.water;
}
// * * * * * * * * * * * * * * * * * * * * * * * * * * * * * * * * * * * * * //

dimensions      [0 3 -1 0 0 0 0];
oriented        oriented;


internalField   nonuniform List<scalar> 
4432
(
-1.37361e-06
1.37361e-06
2.33013e-06
-3.70374e-06
8.2102e-06
-5.88007e-06
1.46047e-05
-6.39447e-06
2.10653e-05
-6.46059e-06
2.75456e-05
-6.48034e-06
3.40908e-05
-6.54518e-06
4.07463e-05
-6.65551e-06
4.75366e-05
-6.79026e-06
5.44581e-05
-6.92149e-06
6.14694e-05
-7.01133e-06
6.84761e-05
-7.0067e-06
7.5309e-05
-6.83293e-06
8.1694e-05
-6.38504e-06
8.7204e-05
-5.50995e-06
9.1155e-05
-3.951e-06
9.22959e-05
-1.14094e-06
8.82399e-05
4.05605e-06
7.59255e-05
1.23144e-05
5.31059e-05
2.28196e-05
2.19841e-05
3.11217e-05
-6.42634e-06
2.92015e-05
-6.68665e-06
1.34881e-06
2.47863e-08
5.90892e-06
-8.26385e-06
1.17221e-05
-1.16932e-05
1.79124e-05
-1.25848e-05
2.42132e-05
-1.27613e-05
3.05902e-05
-1.28574e-05
3.70744e-05
-1.30294e-05
4.36997e-05
-1.32808e-05
5.04817e-05
-1.35722e-05
5.74075e-05
-1.38473e-05
6.44264e-05
-1.40302e-05
7.14355e-05
-1.40158e-05
7.82603e-05
-1.36578e-05
8.46285e-05
-1.27532e-05
9.01352e-05
-1.10166e-05
9.42128e-05
-8.02862e-06
9.62444e-05
-3.17254e-06
9.5629e-05
4.67147e-06
9.08918e-05
1.70516e-05
7.86753e-05
3.50362e-05
5.42373e-05
5.55596e-05
2.18057e-05
6.16331e-05
1.38857e-05
3.11955e-06
-3.09476e-06
8.28071e-06
-1.3425e-05
1.4112e-05
-1.75245e-05
2.0162e-05
-1.86347e-05
2.63055e-05
-1.89048e-05
3.25456e-05
-1.90975e-05
3.89169e-05
-1.94007e-05
4.54484e-05
-1.98124e-05
5.21499e-05
-2.02737e-05
5.90033e-05
-2.07007e-05
6.59534e-05
-2.09804e-05
7.28948e-05
-2.09572e-05
7.96544e-05
-2.04173e-05
8.59696e-05
-1.90684e-05
9.14621e-05
-1.65091e-05
9.56109e-05
-1.21775e-05
9.77205e-05
-5.2821e-06
9.70423e-05
5.34964e-06
9.27626e-05
2.13314e-05
8.36454e-05
4.41534e-05
6.61548e-05
7.30502e-05
3.70281e-05
9.07598e-05
4.9706e-05
4.15473e-06
-7.2495e-06
9.91138e-06
-1.91817e-05
1.58978e-05
-2.35109e-05
2.19042e-05
-2.46412e-05
2.79433e-05
-2.49439e-05
3.40722e-05
-2.52264e-05
4.03415e-05
-2.567e-05
4.67831e-05
-2.62539e-05
5.3406e-05
-2.68966e-05
6.01912e-05
-2.74859e-05
6.70831e-05
-2.78723e-05
7.39779e-05
-2.7852e-05
8.07076e-05
-2.7147e-05
8.70219e-05
-2.53827e-05
9.25665e-05
-2.20537e-05
9.68575e-05
-1.64685e-05
9.92481e-05
-7.67268e-06
9.89507e-05
5.64699e-06
9.50894e-05
2.51927e-05
8.66629e-05
5.25798e-05
7.13951e-05
8.8318e-05
4.42023e-05
0.000117953
9.39983e-05
4.73466e-06
-1.19842e-05
1.09932e-05
-2.54403e-05
1.71891e-05
-2.97068e-05
2.32208e-05
-3.06729e-05
2.92064e-05
-3.09295e-05
3.52567e-05
-3.12768e-05
4.14441e-05
-3.18574e-05
4.78086e-05
-3.26184e-05
5.43633e-05
-3.34513e-05
6.10923e-05
-3.42148e-05
6.79434e-05
-3.47235e-05
7.48177e-05
-3.47262e-05
8.15552e-05
-3.38846e-05
8.792e-05
-3.17475e-05
9.35816e-05
-2.77152e-05
9.80927e-05
-2.09796e-05
0.000100858
-1.04381e-05
0.00010112
5.38487e-06
9.79652e-05
2.83477e-05
9.02078e-05
6.03372e-05
7.57188e-05
0.000102807
4.92478e-05
0.000144424
0.000144973
5.08148e-06
-1.70656e-05
1.16906e-05
-3.20494e-05
1.80678e-05
-3.6084e-05
2.41463e-05
-3.67514e-05
3.01085e-05
-3.68916e-05
3.61055e-05
-3.72738e-05
4.22289e-05
-3.79808e-05
4.85292e-05
-3.89187e-05
5.50264e-05
-3.99484e-05
6.17107e-05
-4.08991e-05
6.85365e-05
-4.15493e-05
7.54126e-05
-4.16023e-05
8.21893e-05
-4.06614e-05
8.86462e-05
-3.82044e-05
9.4477e-05
-3.3546e-05
9.9271e-05
-2.57737e-05
0.000102485
-1.36517e-05
0.000103415
4.45411e-06
0.000101165
3.05979e-05
9.44221e-05
6.70805e-05
8.08887e-05
0.00011634
5.495e-05
0.000170362
0.000199927
5.30901e-06
-2.23746e-05
1.21147e-05
-3.88551e-05
1.86038e-05
-4.25731e-05
2.47147e-05
-4.28622e-05
3.0661e-05
-4.2838e-05
3.6617e-05
-4.32298e-05
4.26874e-05
-4.40512e-05
4.89318e-05
-4.5163e-05
5.53783e-05
-4.6395e-05
6.20257e-05
-4.75465e-05
6.88371e-05
-4.83607e-05
7.5731e-05
-4.84961e-05
8.25696e-05
-4.75e-05
8.91484e-05
-4.47832e-05
9.51852e-05
-3.95829e-05
0.000100306
-3.08946e-05
0.000104023
-1.73688e-05
0.00010571
2.76704e-06
0.000104547
3.17613e-05
9.9236e-05
7.23905e-05
8.75283e-05
0.000128047
6.30415e-05
0.000194849
0.000262983
5.4542e-06
-2.78288e-05
1.23328e-05
-4.57337e-05
1.88527e-05
-4.9093e-05
2.49608e-05
-4.89703e-05
3.08821e-05
-4.87593e-05
3.67976e-05
-4.91454e-05
4.28178e-05
-5.00714e-05
4.9009e-05
-5.13542e-05
5.54076e-05
-5.27936e-05
6.20217e-05
-5.41606e-05
6.88251e-05
-5.51641e-05
7.57473e-05
-5.54184e-05
8.26631e-05
-5.44158e-05
8.93833e-05
-5.15034e-05
9.56482e-05
-4.58477e-05
0.00010112
-3.63659e-05
0.000105368
-2.16177e-05
0.000107862
2.73515e-07
0.000107923
3.16998e-05
0.000104465
7.58484e-05
9.56537e-05
0.000136857
7.3449e-05
0.000217054
0.00033643
-2.35732e-22
2.43211e-22
-2.93206e-22
2.48981e-22
-3.23169e-23
7.28531e-23
-5.74782e-25
1.70849e-24
-6.81284e-26
-2.1949e-26
-4.0984e-27
-4.39444e-26
-2.79898e-28
-6.32271e-28
-1.6502e-29
-4.49252e-29
-7.752e-31
-2.98107e-30
-2.90572e-32
-1.57403e-31
-8.84142e-34
-6.55014e-33
-2.18154e-35
-2.1348e-34
-4.23211e-37
-5.53275e-36
-6.18117e-39
-1.10609e-37
-6.30505e-41
-1.65465e-39
-3.88214e-43
-1.77499e-41
-7.6148e-46
-1.1782e-43
-9.38974e-47
-3.29369e-46
-1.10923e-46
-9.9659e-21
1.14979e-20
-2.0837e-20
3.18017e-20
-1.28035e-20
2.27804e-20
-1.28036e-21
2.32678e-21
-2.70288e-23
-4.04371e-22
-5.64663e-25
-1.2592e-23
-1.94318e-26
-2.00828e-25
-7.48525e-28
-5.95519e-27
-2.67914e-29
-2.25729e-28
-8.35277e-31
-8.40361e-30
-2.19378e-32
-2.7772e-31
-4.71142e-34
-7.69768e-33
-7.93415e-36
-1.7354e-34
-9.90132e-38
-3.03706e-36
-8.2939e-40
-3.91567e-38
-3.91913e-42
-3.23666e-40
-6.63275e-45
-1.75379e-42
-9.18193e-47
-5.73515e-45
-3.7126e-46
-3.22833e-19
4.08407e-19
-2.33801e-18
2.76103e-18
-3.66087e-18
4.07785e-18
-4.18831e-19
1.40854e-18
-3.23103e-21
-6.51645e-20
-3.85128e-23
-1.1435e-21
-8.23443e-25
-1.70906e-23
-2.06042e-26
-3.95861e-25
-5.23629e-28
-1.01211e-26
-1.26652e-29
-2.56951e-28
-2.73825e-31
-6.23343e-30
-4.99574e-33
-1.36019e-31
-7.23059e-35
-2.51393e-33
-7.7275e-37
-3.64682e-35
-5.40923e-39
-3.87108e-37
-2.37038e-41
-3.09827e-39
-5.38218e-44
-1.89281e-41
-1.13319e-45
-7.80249e-44
-8.45642e-45
-1.8435e-17
1.9588e-17
-1.16793e-16
1.74765e-16
-1.26888e-16
2.2037e-16
-6.46241e-18
3.5944e-17
-6.06017e-20
-5.07624e-19
-9.57671e-22
-1.45822e-20
-2.1814e-23
-4.49979e-22
-4.48428e-25
-1.56345e-23
-8.64427e-27
-3.36546e-25
-1.6065e-28
-6.18439e-27
-2.76237e-30
-1.12853e-28
-4.12523e-32
-1.88246e-30
-5.0154e-34
-2.69112e-32
-4.6374e-36
-3.25538e-34
-3.32455e-38
-3.29708e-36
-1.68271e-40
-2.7904e-38
-3.97221e-43
-1.86117e-40
-1.39054e-44
-7.57139e-43
-1.29103e-43
-4.31618e-16
4.23366e-16
-2.77324e-15
3.91771e-15
-5.33403e-16
2.57268e-15
-1.76185e-17
9.11436e-17
-3.85076e-19
-1.18498e-18
-1.06908e-20
-1.11978e-19
-3.25449e-22
-6.27431e-21
-6.53628e-24
-3.19173e-22
-1.09512e-25
-7.21153e-24
-1.71258e-27
-1.18703e-25
-2.4613e-29
-1.70011e-27
-3.09802e-31
-2.42817e-29
-3.35679e-33
-3.17313e-31
-3.08677e-35
-3.56413e-33
-2.25021e-37
-3.41569e-35
-1.13778e-39
-2.78988e-37
-2.42815e-42
-1.81691e-39
-1.25836e-43
-6.89454e-42
-1.53183e-42
-2.22405e-15
2.6672e-15
-8.41818e-15
1.58135e-14
-7.47335e-16
7.59918e-15
-2.80341e-17
1.4616e-16
-2.14549e-18
-5.73792e-18
-7.28376e-20
-1.10283e-18
-2.20321e-21
-3.84393e-20
-4.89739e-23
-1.44221e-21
-8.83857e-25
-4.20233e-23
-1.32705e-26
-1.0465e-24
-1.8189e-28
-1.83918e-26
-2.26776e-30
-2.60482e-28
-2.45649e-32
-4.10457e-30
-2.19934e-34
-5.10454e-32
-1.54897e-36
-5.20827e-34
-7.56134e-39
-3.62824e-36
-1.44029e-41
-2.20414e-38
-9.99558e-43
-6.96819e-41
-1.66958e-41
-2.0545e-14
2.70819e-14
-9.04912e-15
4.45291e-14
-1.38449e-16
2.30975e-15
-4.62247e-17
6.77437e-18
-1.19689e-17
-7.98158e-18
-2.85761e-19
-7.25227e-18
-5.3369e-21
-1.26112e-19
-1.34898e-22
-1.62416e-21
-3.12438e-24
-4.48934e-23
-5.76429e-26
-1.14136e-24
-8.3588e-28
-3.90941e-26
-1.06508e-29
-6.02311e-28
-1.21439e-31
-7.40788e-30
-1.15731e-33
-8.47867e-32
-8.43251e-36
-1.0183e-33
-4.06171e-38
-8.83685e-36
-6.61401e-41
-5.63252e-38
-6.69226e-42
-1.78927e-40
-9.7991e-41
-3.00837e-14
8.88794e-14
-1.98609e-15
5.8542e-14
-9.55901e-17
9.78949e-16
-3.83134e-17
2.54304e-18
-2.77676e-17
-7.66509e-18
-9.89172e-19
-1.75707e-17
-1.06977e-20
-9.36191e-19
-3.51545e-22
-1.1574e-20
-8.7842e-24
-3.67839e-22
-1.58724e-25
4.52571e-24
-2.54343e-27
1.01252e-25
-2.92755e-29
1.25234e-27
-3.0232e-31
4.63995e-29
-2.9057e-33
1.12412e-30
-2.25817e-35
1.65439e-32
-1.08865e-37
1.60209e-34
-1.40784e-40
1.04015e-36
-3.03792e-41
2.56239e-39
7.81344e-41
1.16414e-05
-3.94702e-05
2.63657e-05
-6.04581e-05
4.00422e-05
-6.27695e-05
5.2857e-05
-6.17852e-05
6.53146e-05
-6.12169e-05
7.77532e-05
-6.15839e-05
9.03984e-05
-6.27166e-05
0.000103405
-6.43604e-05
0.000116875
-6.62637e-05
0.000130859
-6.81451e-05
0.000145341
-6.96455e-05
0.000160209
-7.02871e-05
0.000175238
-6.94447e-05
0.000190067
-6.6332e-05
0.000204201
-5.99821e-05
0.000217026
-4.91904e-05
0.00022782
-3.2412e-05
0.000235777
-7.68342e-06
0.000240037
2.74394e-05
0.0002397
7.61863e-05
0.000233749
0.000142809
0.000224435
0.000226367
0.000338114
0.000222751
1.17233e-05
-5.11935e-05
2.57067e-05
-7.44415e-05
3.86405e-05
-7.57033e-05
5.08831e-05
-7.40278e-05
6.29181e-05
-7.32519e-05
7.50232e-05
-7.3689e-05
8.73829e-05
-7.50763e-05
0.000100147
-7.71243e-05
0.000113441
-7.95583e-05
0.00012736
-8.20633e-05
0.000141936
-8.42222e-05
0.000157111
-8.54622e-05
0.000172691
-8.50241e-05
0.000188325
-8.19664e-05
0.000203528
-7.51852e-05
0.000217728
-6.33902e-05
0.000230332
-4.50154e-05
0.000240793
-1.81449e-05
0.000248623
1.96098e-05
0.000253489
7.13194e-05
0.000256464
0.000139834
0.000263624
0.000219206
0.000332883
0.000268855
1.16438e-05
-6.28373e-05
2.4504e-05
-8.73016e-05
3.63203e-05
-8.75196e-05
4.77144e-05
-8.54218e-05
5.91047e-05
-8.46422e-05
7.06874e-05
-8.52717e-05
8.26003e-05
-8.69892e-05
9.49824e-05
-8.95064e-05
0.000107978
-9.25542e-05
0.000121721
-9.58058e-05
0.000136294
-9.87958e-05
0.000151678
-0.000100845
0.000167668
-0.000101014
0.000183838
-9.81366e-05
0.000199568
-9.09142e-05
0.00021412
-7.79431e-05
0.000226712
-5.76085e-05
0.000236517
-2.79558e-05
0.000242009
1.22021e-05
0.000239575
5.78706e-05
0.000212474
8.06021e-05
0.000222753
0.000110511
0.000283245
0.000253753
1.13839e-05
-7.42213e-05
2.28469e-05
-9.87646e-05
3.33466e-05
-9.80194e-05
4.37217e-05
-9.57969e-05
5.42912e-05
-9.52117e-05
6.51629e-05
-9.61433e-05
7.64298e-05
-9.82561e-05
8.82188e-05
-0.000101295
0.000100689
-0.000105024
0.00011401
-0.000109127
0.000128319
-0.000113104
0.000143621
-0.000116148
0.000159651
-0.000117044
0.000175763
-0.000114249
0.000190969
-0.00010612
0.000203996
-9.09733e-05
0.000213068
-6.6733e-05
0.000207099
-3.1622e-05
0.000138772
6.68043e-06
5.71766e-05
8.04087e-06
4.09178e-05
3.4434e-06
7.34081e-05
1.20797e-05
0.000139773
0.000208428
1.09264e-05
-8.51477e-05
2.07732e-05
-0.000108611
2.98803e-05
-0.000107126
3.91685e-05
-0.000105085
4.88109e-05
-0.000104854
5.8825e-05
-0.000106157
6.92601e-05
-0.000108691
8.02259e-05
-0.000112261
9.18864e-05
-0.000116685
0.000104443
-0.000121683
0.000118086
-0.000126747
0.000132858
-0.000130919
0.000148348
-0.000132532
0.000163457
-0.000129355
0.000176284
-0.000118944
0.000182685
-9.7461e-05
0.000147735
-5.40116e-05
4.34897e-05
-7.36839e-06
3.96844e-06
-3.23394e-07
5.30875e-06
-2.92782e-08
7.76307e-06
4.72481e-07
1.68619e-05
2.47011e-06
3.4161e-05
0.000115762
1.01669e-05
-9.53144e-05
1.82582e-05
-0.000116702
2.60317e-05
-0.000114899
3.42734e-05
-0.000113326
4.29708e-05
-0.000113551
5.20548e-05
-0.000115241
6.15297e-05
-0.000118166
7.1474e-05
-0.000122204
8.20333e-05
-0.000127243
9.3417e-05
-0.000133065
0.000105872
-0.000139198
0.000119492
-0.000144532
0.000133594
-0.000146622
0.000145947
-0.000141678
0.000149975
-0.000122972
0.000101971
-6.58434e-05
9.04821e-06
-9.77665e-06
9.85319e-07
-2.97424e-07
6.85542e-07
-2.36471e-08
6.36746e-07
6.87324e-09
9.80403e-07
8.73932e-08
3.00473e-06
4.26587e-07
6.26695e-06
3.03509e-05
8.80348e-06
-0.000104116
1.52516e-05
-0.000123146
2.19436e-05
-0.000121587
2.92993e-05
-0.000120678
3.7139e-05
-0.000121387
4.53249e-05
-0.000123422
5.38147e-05
-0.00012665
6.26322e-05
-0.000131014
7.18575e-05
-0.000136456
8.16408e-05
-0.00014283
9.22376e-05
-0.000149759
0.000103832
-0.000156065
0.000115038
-0.000157733
0.000119319
-0.000145725
7.62845e-05
-7.58897e-05
9.27367e-06
-9.6111e-06
3.37813e-07
-7.55858e-07
7.03441e-08
-2.66748e-08
5.25262e-08
-1.16827e-09
5.92849e-08
1.363e-09
1.36728e-07
1.20251e-08
4.96739e-07
7.08774e-08
1.06075e-06
5.65566e-06
6.52586e-06
-0.000110621
1.19187e-05
-0.000128498
1.794e-05
-0.000127571
2.46427e-05
-0.000127347
3.17966e-05
-0.000128507
3.92208e-05
-0.000130808
4.68235e-05
-0.000134202
5.45386e-05
-0.000138661
6.22948e-05
-0.000144113
6.9979e-05
-0.000150364
7.77353e-05
-0.000157218
8.59326e-05
-0.000163808
9.11147e-05
-0.000162205
6.21186e-05
-8.69848e-05
9.55425e-06
-9.33273e-06
7.3515e-07
-6.26298e-07
2.92515e-08
-4.15762e-08
3.76084e-09
-1.04896e-09
3.09485e-09
-6.53342e-11
4.85215e-09
9.67884e-11
1.67587e-08
8.9739e-10
8.10831e-08
9.23327e-09
1.59473e-07
9.81849e-07
3.94659e-06
-0.000114363
8.98262e-06
-0.000133202
1.44976e-05
-0.000132777
2.06552e-05
-0.000133223
2.72497e-05
-0.00013482
3.4002e-05
-0.000137241
4.07559e-05
-0.00014055
4.73959e-05
-0.000144746
5.38218e-05
-0.000149772
5.89136e-05
-0.000151061
6.07898e-05
-0.000129587
5.96422e-05
-0.000116362
4.4441e-05
-7.61512e-05
9.41005e-06
-7.62606e-06
6.37089e-07
-3.62485e-07
4.16498e-08
-2.00974e-08
1.15414e-09
-7.25278e-10
9.68588e-11
-1.09002e-11
9.36441e-11
-8.84105e-12
3.24948e-10
-2.66316e-11
1.58503e-09
-5.64582e-11
1.13767e-08
4.6566e-10
1.9182e-08
1.55632e-07
4.70611e-06
-8.29282e-05
7.39759e-06
-9.21834e-05
1.15494e-05
-9.67493e-05
1.68554e-05
-0.000102854
2.26228e-05
-0.000105846
2.79556e-05
-0.000103528
3.21227e-05
-9.57723e-05
3.37797e-05
-8.17132e-05
3.09828e-05
-6.18998e-05
2.29134e-05
-3.45605e-05
1.39975e-05
-2.03622e-06
1.0596e-05
-1.26304e-07
8.01364e-06
-8.14694e-09
3.88186e-07
-8.32323e-10
2.09291e-08
-5.19961e-11
7.6209e-10
1.27072e-13
5.61084e-12
-6.95592e-12
1.02848e-12
-6.81827e-14
2.94125e-13
-1.04485e-12
1.82518e-13
-6.72321e-12
4.56724e-11
-1.29096e-11
9.76502e-10
1.09982e-10
1.45931e-09
2.00449e-08
5.01804e-06
7.03722e-13
2.79245e-06
5.85627e-14
3.68521e-06
8.04754e-10
5.42728e-06
3.1851e-09
7.08129e-06
1.53703e-10
7.50896e-06
6.43049e-12
6.68438e-06
3.38972e-13
4.6827e-06
4.38036e-14
2.38964e-06
7.35544e-15
2.17038e-06
2.98743e-16
1.34158e-07
-8.23508e-13
7.88339e-09
-2.56476e-11
4.3504e-10
-6.06251e-10
3.8454e-11
-4.90749e-10
1.50301e-12
-1.55069e-11
-9.98931e-15
-2.54398e-13
-8.42076e-13
-8.18482e-13
-4.72248e-13
5.59497e-13
-3.94184e-13
3.35267e-13
-6.6422e-13
4.25568e-13
5.50984e-12
5.20933e-12
1.08159e-10
8.44322e-11
9.75844e-10
2.85151e-10
-2.30107e-13
8.91573e-17
-9.08593e-15
8.31943e-17
-9.05524e-11
5.61922e-16
-4.44975e-10
1.12624e-12
-2.77587e-11
9.68805e-13
-1.4488e-12
5.80887e-13
-9.15447e-14
2.41246e-13
-1.36635e-14
1.06818e-13
-2.52976e-15
1.78661e-14
1.28624e-15
-1.35747e-14
4.92122e-14
-8.60044e-13
1.38881e-12
-2.22454e-11
3.99124e-11
-6.38004e-10
4.33313e-11
-1.39824e-09
-1.5058e-13
9.88738e-13
-3.54038e-13
-1.37733e-13
-1.95922e-12
-4.58926e-14
-1.19581e-12
8.90037e-13
-6.25557e-13
2.44401e-13
4.11821e-13
7.81614e-13
4.76065e-12
5.64278e-12
4.84284e-11
5.78445e-11
5.76962e-10
6.28304e-10
-3.48145e-18
1.20937e-16
-1.46105e-17
1.75473e-16
-8.55151e-17
1.07162e-15
-1.89135e-13
1.40264e-12
-1.9346e-13
1.28483e-12
-1.35356e-13
7.68116e-13
-6.31856e-14
3.71889e-13
-3.0039e-14
1.22275e-13
-5.12877e-15
-2.63373e-15
4.69285e-14
-6.24037e-14
1.65663e-12
-2.39563e-12
8.35048e-11
-1.04097e-10
2.16195e-10
-2.36898e-09
1.31026e-13
-3.19305e-09
-1.18869e-13
4.04427e-13
-5.87811e-13
-5.43506e-14
-1.42983e-12
7.8502e-14
-5.55635e-13
3.52463e-14
-1.57141e-13
1.97534e-13
1.38903e-13
5.65782e-13
2.36233e-12
3.57736e-12
2.26135e-11
4.0761e-11
3.29687e-10
4.64279e-10
2.41786e-17
1.04511e-16
-1.23777e-17
2.56832e-16
-1.47181e-16
1.69665e-15
-2.14203e-13
7.74168e-13
-2.14681e-13
9.02919e-13
-1.37476e-13
6.02882e-13
-6.85238e-14
2.77165e-13
-2.1947e-14
5.99107e-14
2.47425e-15
-4.30196e-14
3.12801e-13
-4.56047e-13
5.7395e-12
-1.5005e-11
-2.54693e-11
-1.85167e-10
-6.49317e-10
-2.92554e-09
2.44738e-13
-1.57462e-09
-1.06135e-13
1.39252e-13
-1.87864e-13
-1.72612e-14
-1.29669e-13
1.95252e-14
-1.6874e-13
1.89533e-14
-1.22956e-13
1.24018e-13
-6.74208e-14
2.34923e-13
1.7739e-12
1.35761e-12
2.88354e-11
1.05688e-11
1.13767e-10
1.06752e-10
1.66042e-17
6.68038e-17
-1.20921e-17
2.59659e-16
-1.60797e-16
2.37233e-15
-7.91841e-14
1.12143e-13
-9.04909e-14
4.03889e-13
-5.62459e-14
3.27684e-13
-2.2164e-14
1.33887e-13
-3.44116e-15
-1.10243e-14
1.22521e-14
-1.09373e-13
2.90314e-13
-1.90681e-12
7.90349e-12
-3.44538e-11
-8.04869e-11
-1.08179e-10
-8.05065e-10
-4.74951e-14
1.813e-13
-1.3448e-13
-1.18403e-13
-4.07631e-14
-1.21269e-13
-4.08475e-16
-6.74263e-14
3.74712e-14
-9.60402e-14
3.21037e-14
-9.05038e-14
5.89676e-14
2.82197e-14
8.73529e-14
5.36875e-13
3.15873e-13
5.21774e-12
2.10853e-12
6.64612e-12
-1.06025e-12
4.44259e-18
3.47327e-17
-4.65178e-18
2.14711e-16
-8.24117e-17
2.982e-15
-3.63018e-15
5.92639e-14
-8.01917e-15
1.78684e-13
-1.36701e-16
1.25556e-13
-2.90769e-16
3.7852e-14
8.43197e-17
-1.9349e-14
8.25595e-14
-6.86416e-13
-7.56794e-13
-2.63452e-12
-1.58889e-11
-5.04057e-12
-1.76796e-14
-7.82108e-14
-2.77977e-14
-4.87084e-14
-9.4744e-14
-8.0821e-14
-1.48008e-13
-4.08736e-14
-1.28174e-13
1.05157e-14
-5.95571e-14
3.9979e-14
-5.73342e-14
2.70958e-14
-5.86205e-14
2.8523e-14
-5.01947e-14
3.92586e-14
-3.15853e-14
4.59283e-14
1.15639e-13
3.49461e-13
1.01589e-12
-3.23704e-12
3.84874e-18
1.37591e-17
5.0669e-17
1.36209e-16
1.349e-15
1.87209e-15
6.69573e-15
1.63441e-14
7.54187e-15
3.81132e-14
3.42067e-15
2.38966e-14
-6.47415e-15
-3.69102e-15
-1.4052e-14
-9.36485e-14
-6.72465e-13
-6.41258e-13
-1.48776e-13
-6.00492e-13
-2.11703e-14
-4.32283e-13
-2.52033e-14
-8.27017e-14
-4.95767e-14
-2.50112e-14
-1.54169e-13
-3.33881e-14
-1.60531e-13
-1.81558e-14
-1.40107e-13
1.53943e-14
-4.49678e-14
2.64492e-14
-2.82871e-14
1.27519e-14
-2.5713e-14
1.05057e-14
-1.93298e-14
1.06563e-14
-2.00202e-14
1.07351e-14
-1.04545e-13
4.93056e-14
1.36865e-13
-1.19714e-12
4.07826e-18
2.48119e-18
9.43742e-17
1.52337e-17
1.1934e-15
6.40179e-17
3.82384e-15
2.25712e-16
3.20039e-15
3.7516e-16
-5.73515e-16
-3.19169e-17
-2.97006e-15
-2.50085e-15
-1.21697e-13
-5.61494e-14
-2.35483e-13
-4.06376e-13
-9.88174e-14
-7.34195e-13
-5.4134e-14
-5.36354e-13
-2.66156e-14
-1.50565e-13
-3.47358e-14
-1.33843e-14
-9.74405e-14
-5.70603e-15
-1.10829e-13
-5.58426e-15
-7.38869e-14
7.46757e-15
-1.97863e-14
8.02997e-15
-9.59126e-15
3.32727e-15
-6.8128e-15
2.20093e-15
-5.22975e-15
1.75974e-15
-7.41987e-15
2.06483e-15
-2.64263e-14
5.81384e-15
1.23687e-14
-2.13208e-13
6.43677e-19
5.1131e-22
5.04841e-18
8.06459e-21
2.60248e-17
4.84996e-20
5.79959e-17
4.8462e-20
-2.13938e-18
-1.93283e-18
-4.63006e-16
-2.93188e-17
-1.80995e-15
-9.3169e-16
-4.48532e-14
-1.18466e-14
-2.45821e-13
-2.49554e-13
-4.36687e-13
-7.02832e-13
-4.65935e-13
-6.68501e-13
-6.09738e-14
-4.45083e-13
-8.31152e-15
-1.84657e-14
-1.84575e-14
-4.3388e-17
-2.77812e-14
-3.07604e-16
-1.80567e-14
7.28867e-16
-4.44107e-15
1.03719e-15
-1.95116e-15
4.03664e-16
-1.08899e-15
2.54339e-16
-8.09618e-16
1.7925e-16
-1.20142e-15
2.04332e-16
-3.99898e-15
8.868e-16
4.25784e-15
-2.83981e-14
4.26963e-22
3.53183e-22
4.9382e-21
6.20793e-21
7.26175e-21
4.63228e-20
-2.07207e-19
1.53117e-19
-1.84677e-18
-2.93269e-19
-2.54781e-17
-8.88016e-18
-4.97839e-16
-1.01719e-16
-1.49206e-14
-1.96342e-15
-3.22168e-13
-5.2085e-14
-5.52259e-13
-3.83781e-13
-5.23783e-13
-3.53378e-13
-1.43315e-13
-3.09379e-13
-1.09781e-15
-2.39608e-14
-1.14023e-15
-1.95206e-18
-2.12678e-15
-9.50935e-18
-1.76958e-15
1.77115e-17
-4.91085e-16
4.90816e-17
-2.252e-16
2.30715e-17
-1.11554e-16
1.67906e-17
-8.78389e-17
1.23155e-17
-1.44163e-16
1.76872e-17
-9.01201e-16
9.62544e-17
6.60773e-16
-4.27258e-15
3.80842e-22
1.31677e-22
5.5466e-21
2.7049e-21
2.71563e-20
2.64025e-20
-2.86277e-20
1.60803e-19
-9.93446e-19
6.71549e-19
-1.18205e-17
1.99931e-18
-1.6552e-16
4.28389e-18
-2.27233e-15
6.52677e-18
-5.65677e-14
6.9782e-18
-3.20881e-13
5.13203e-18
-3.14815e-13
2.27709e-18
-9.83823e-14
3.50281e-19
-4.548e-17
-1.68541e-18
-4.65915e-17
-8.65774e-19
-7.73502e-17
-5.34065e-19
-7.25711e-17
2.84537e-19
-2.94879e-17
1.05581e-18
-1.51924e-17
8.05294e-19
-8.09463e-18
7.32338e-19
-7.62704e-18
6.93058e-19
-1.44695e-17
1.37364e-18
-7.64702e-17
7.71443e-18
5.03276e-17
-5.32806e-16
1.82809e-22
8.39159e-25
3.51761e-21
1.17222e-23
3.19338e-20
6.83176e-23
1.78913e-19
1.84256e-22
6.79783e-19
9.16053e-24
1.81467e-18
-1.71709e-21
3.41467e-18
-3.33967e-20
4.52272e-18
-3.07297e-19
4.17627e-18
-8.50456e-19
2.38735e-18
-1.07445e-18
4.94196e-19
-9.32792e-19
-1.79919e-19
-5.951e-19
-1.7614e-18
-1.03928e-19
-2.605e-18
-3.29264e-20
-2.28551e-18
-1.18745e-20
-2.01954e-18
3.74203e-21
-1.11352e-18
1.67396e-20
-7.14663e-19
2.179e-20
-5.23665e-19
2.70834e-20
-5.1844e-19
3.46202e-20
-1.26995e-18
9.30452e-20
-6.72075e-18
5.45795e-19
3.45722e-18
-4.86272e-17
8.42978e-25
1.1838e-27
9.75945e-24
1.12937e-26
3.947e-23
3.77444e-26
2.64331e-24
1.30232e-26
-6.33786e-22
-2.81959e-25
-2.33832e-21
-1.25642e-23
-6.37811e-20
-1.29741e-22
-4.48905e-19
-3.30934e-21
-9.35738e-19
-2.99637e-20
-1.04807e-18
-8.41079e-20
-8.7331e-19
-5.51787e-20
-3.41062e-19
-2.28615e-20
-6.85359e-20
-4.81078e-21
-5.27716e-20
-1.33097e-21
-5.13008e-20
-3.79193e-22
-4.37924e-20
1.8106e-23
-3.26207e-20
2.4855e-22
-2.90611e-20
5.41072e-22
-2.69933e-20
9.13584e-22
-3.14031e-20
1.51824e-21
-9.6258e-20
5.41477e-21
-5.16027e-19
3.28617e-20
2.06638e-19
-3.69924e-18
8.41783e-28
-1.61834e-34
5.62642e-27
-2.01619e-32
2.92764e-27
-1.23778e-30
-8.57391e-26
-5.07431e-29
-3.64777e-25
-2.92057e-27
-1.28588e-23
-6.89213e-26
-1.4936e-22
-8.8697e-25
-4.08825e-21
-2.29265e-23
-2.82498e-20
-1.67557e-22
-6.52562e-20
-4.29807e-22
-2.8419e-20
-5.65784e-22
-7.9361e-21
-4.96375e-22
-3.10933e-21
-2.01333e-22
-1.73936e-21
-4.9242e-23
-1.11017e-21
-1.26678e-23
-7.79319e-22
-9.55641e-25
-8.77089e-22
3.49922e-24
-9.79177e-22
1.21282e-23
-1.08169e-21
2.62708e-23
-1.67864e-21
5.70717e-23
-6.21607e-21
2.64865e-22
-3.35926e-20
1.66674e-21
1.05305e-20
-2.40871e-19
-1.61376e-34
-4.57388e-37
-2.02618e-32
-6.15142e-35
-1.25399e-30
-4.05742e-33
-5.18195e-29
-1.7782e-31
-2.96715e-27
-5.63977e-30
-7.19857e-26
-1.10409e-28
-1.11268e-24
-1.82554e-27
-2.59864e-23
-4.02893e-26
-1.4508e-22
-8.07248e-25
-3.20043e-22
-5.18229e-24
-3.98842e-22
-1.22818e-23
-3.1027e-22
-1.48756e-23
-1.19365e-22
-1.1858e-23
-5.45127e-23
-3.56237e-24
-2.57679e-23
-4.53593e-25
-1.61097e-23
-5.52513e-26
-1.99866e-23
4.52018e-26
-2.75901e-23
2.16484e-25
-3.67872e-23
6.06776e-25
-7.70705e-23
1.82531e-24
-3.3624e-22
1.10428e-23
-1.84472e-21
7.07657e-23
4.56556e-22
-1.34156e-20
-4.56539e-37
-8.9092e-40
-6.18372e-35
-1.40229e-37
-4.10863e-33
-1.07378e-35
-1.81364e-31
-5.42991e-34
-5.72876e-30
-1.44182e-32
-1.15803e-28
-4.05309e-31
-1.94788e-27
-7.22464e-30
-5.48273e-26
-1.54326e-28
-1.05708e-24
-3.88658e-27
-5.45406e-24
-3.62388e-26
-1.12813e-23
-1.12146e-25
-1.28699e-23
-1.59928e-25
-8.52133e-24
-1.43414e-25
-1.89489e-24
-6.66464e-26
-6.40535e-25
-1.28834e-26
-3.61315e-25
-2.40291e-27
-3.96075e-25
4.31105e-28
-6.15454e-25
2.78019e-27
-1.03736e-24
1.0973e-26
-3.0245e-24
5.4092e-26
-1.56932e-23
3.89844e-25
-8.53034e-23
2.6495e-24
1.68488e-23
-6.38428e-22
-8.82887e-40
-3.19321e-43
-1.39453e-37
-5.16767e-41
-1.07221e-35
-4.05462e-39
-5.44534e-34
-2.09565e-37
-1.49564e-32
-8.06529e-36
-4.20082e-31
-2.44476e-34
-7.63723e-30
-4.92705e-33
-1.9397e-28
-1.07654e-31
-5.73221e-27
-2.50227e-30
-4.28115e-26
-4.88056e-29
-1.08716e-25
-3.41313e-28
-1.44916e-25
-8.91446e-28
-1.25213e-25
-1.1684e-27
-4.40299e-26
-9.85317e-28
-1.79799e-26
-4.32363e-28
-8.4573e-27
-6.91947e-29
-6.63084e-27
-2.96697e-30
-1.06045e-26
2.61234e-29
-2.39253e-26
1.51295e-28
-1.08617e-25
1.32925e-27
-6.26499e-25
1.13626e-26
-3.46379e-24
8.45933e-26
5.30399e-25
-2.6083e-23
-3.19204e-43
-1.53226e-46
-5.19756e-41
-2.75799e-44
-4.10488e-39
-2.3982e-42
-2.13572e-37
-1.37053e-40
-8.27467e-36
-5.78054e-39
-2.49211e-34
-1.7302e-37
-5.17414e-33
-4.35123e-36
-1.14187e-31
-1.03941e-34
-3.6718e-30
-2.21413e-33
-7.49483e-29
-5.48765e-32
-4.34732e-28
-9.06806e-31
-9.97516e-28
-5.16634e-30
-1.29581e-27
-1.09455e-29
-1.12724e-27
-1.16369e-29
-3.92486e-28
-8.1359e-30
-1.44721e-28
-2.05721e-30
-1.01738e-28
-2.5576e-31
-1.48107e-28
1.82039e-31
-4.39713e-28
1.80331e-30
-3.23591e-27
2.66458e-29
-2.08197e-26
2.71954e-28
-1.20629e-25
2.27058e-27
1.45241e-26
-9.14999e-25
-1.53213e-46
-1.909e-50
-2.7724e-44
-3.91288e-48
-2.4239e-42
-3.85414e-46
-1.39286e-40
-2.48817e-44
-5.81409e-39
-1.04924e-42
-1.78816e-37
-3.94984e-41
-4.52966e-36
-1.10948e-39
-1.08472e-34
-2.94634e-38
-2.39598e-33
-6.92619e-37
-9.42427e-32
-1.48799e-35
-1.57577e-30
-3.666e-34
-7.35147e-30
-6.09308e-33
-1.36778e-29
-3.70261e-32
-1.40923e-29
-8.21038e-32
-8.72125e-30
-8.65808e-32
-3.06118e-30
-5.55262e-32
-1.68626e-30
-1.0138e-32
-1.5014e-30
4.06603e-34
-7.61697e-30
1.69867e-32
-7.96458e-29
4.22603e-31
-5.72914e-28
5.30344e-30
-3.56335e-27
5.13063e-29
3.50171e-28
-2.80479e-26
-1.88157e-50
-5.12224e-54
-3.86446e-48
-1.16142e-51
-3.82112e-46
-1.26508e-49
-2.47847e-44
-9.0317e-48
-1.07384e-42
-4.7931e-46
-4.05653e-41
-2.01678e-44
-1.14894e-39
-6.39688e-43
-3.06207e-38
-1.91763e-41
-7.23727e-37
-5.07406e-40
-1.71426e-35
-1.20331e-38
-6.87903e-34
-2.84156e-37
-1.24148e-32
-7.12163e-36
-6.41093e-32
-9.54857e-35
-1.2643e-31
-4.08645e-34
-1.31056e-31
-6.48026e-34
-7.7064e-32
-5.31716e-34
-1.83376e-32
-2.04603e-34
-1.2175e-32
-1.39775e-35
-1.13378e-31
1.00202e-34
-1.55857e-30
6.98459e-33
-1.29642e-29
8.35592e-32
-8.89654e-29
9.75566e-31
7.22142e-30
-7.60672e-28
-5.1221e-54
-3.57026e-58
-1.16651e-51
-9.16788e-56
-1.27669e-49
-1.1276e-53
-9.15877e-48
-9.08325e-52
-4.88419e-46
-5.42785e-50
-2.04008e-44
-2.4454e-48
-6.6008e-43
-9.28447e-47
-1.98378e-41
-3.14755e-45
-5.27327e-40
-9.44293e-44
-1.26111e-38
-2.53945e-42
-4.0942e-37
-6.22799e-41
-1.62427e-35
-1.55698e-39
-2.06497e-34
-4.01774e-38
-7.07041e-34
-5.89317e-37
-1.0114e-33
-2.67888e-36
-8.87431e-34
-4.15307e-36
-2.80099e-34
-3.01203e-36
-1.29117e-34
-7.33025e-37
-1.17377e-33
2.0596e-37
-2.35384e-32
8.01426e-35
-2.39429e-31
1.2545e-33
-1.87445e-30
1.55963e-32
1.27687e-31
-1.77345e-29
-3.57008e-58
-6.03098e-62
-9.19815e-56
-1.77897e-59
-1.13547e-53
-2.49612e-57
-9.18186e-52
-2.28987e-55
-5.44617e-50
-1.48057e-53
-2.49978e-48
-8.02606e-52
-9.53443e-47
-3.47258e-50
-3.24401e-45
-1.34369e-48
-9.77256e-44
-4.60647e-47
-2.63894e-42
-1.41824e-45
-6.53091e-41
-3.98321e-44
-2.39186e-39
-1.05792e-42
-1.04511e-37
-3.01794e-41
-1.53073e-36
-7.75373e-40
-5.60354e-36
-7.68785e-39
-7.66381e-36
-2.12745e-38
-5.44103e-36
-2.13041e-38
-2.40736e-36
-1.06505e-38
-5.95893e-36
-7.18192e-40
-2.79211e-34
5.99611e-37
-3.54998e-33
1.74481e-35
-3.32557e-32
2.5378e-34
1.93644e-33
-3.55869e-31
-5.90995e-62
-2.09889e-66
-1.75632e-59
-7.19019e-64
-2.48019e-57
-1.15628e-61
-2.28777e-55
-1.21129e-59
-1.50344e-53
-9.42601e-58
-8.17642e-52
-5.84981e-56
-3.55571e-50
-2.9103e-54
-1.3793e-48
-1.29789e-52
-4.74507e-47
-5.1261e-51
-1.46595e-45
-1.82112e-49
-4.13222e-44
-5.90949e-48
-1.21779e-42
-1.77488e-46
-6.34073e-41
-5.1625e-45
-2.31031e-39
-1.57914e-43
-1.93991e-38
-4.42009e-42
-4.20064e-38
-4.58253e-41
-4.0791e-38
-1.214e-40
-2.91453e-38
-1.08615e-40
-4.46429e-38
-4.17624e-41
-2.59612e-36
2.23707e-39
-4.32476e-35
1.86277e-37
-4.85705e-34
3.68788e-36
2.53684e-35
-6.14408e-33
-2.09886e-66
-1.87631e-70
-7.21105e-64
-7.66086e-68
-1.16348e-61
-1.43008e-65
-1.22292e-59
-1.72996e-63
-9.54857e-58
-1.55452e-61
-5.9262e-56
-1.0932e-59
-2.96965e-54
-6.46027e-58
-1.32792e-52
-3.35196e-56
-5.26102e-51
-1.54207e-54
-1.87474e-49
-6.38978e-53
-6.10121e-48
-2.4214e-51
-1.83913e-46
-8.49928e-50
-6.3049e-45
-2.7953e-48
-3.67636e-43
-9.34884e-47
-1.5305e-41
-3.43886e-45
-1.31289e-40
-7.82567e-44
-2.58607e-40
-4.4751e-43
-2.81873e-40
-6.80884e-43
-3.19531e-40
-4.45096e-43
-1.71994e-38
1.43986e-42
-4.369e-37
1.5009e-39
-5.99079e-36
4.47688e-38
2.89029e-37
-9.18759e-35
-1.8763e-70
-3.95218e-75
-7.68197e-68
-1.99848e-72
-1.4382e-65
-4.38489e-70
-1.74456e-63
-6.19308e-68
-1.56828e-61
-6.3884e-66
-1.10888e-59
-5.39419e-64
-6.5712e-58
-3.75629e-62
-3.41777e-56
-2.30064e-60
-1.57642e-54
-1.25113e-58
-6.54839e-53
-6.13367e-57
-2.48738e-51
-2.75186e-55
-8.75034e-50
-1.14432e-53
-2.89124e-48
-4.45784e-52
-1.44104e-46
-1.65215e-50
-1.11082e-44
-6.35341e-49
-2.62656e-43
-2.64299e-47
-1.03115e-42
-5.35925e-46
-1.4571e-42
-2.47985e-45
-1.83973e-42
-3.53206e-45
-6.32996e-41
-6.1474e-45
-3.65421e-39
8.94745e-42
-6.32127e-38
4.53767e-40
2.88528e-39
-1.19594e-36
-4.00281e-75
-1.18033e-79
-2.01568e-72
-7.36478e-77
-4.4154e-70
-1.88218e-74
-6.23299e-68
-3.11409e-72
-6.45073e-66
-3.88732e-70
-5.45871e-64
-3.92959e-68
-3.80018e-62
-3.2868e-66
-2.33895e-60
-2.4354e-64
-1.27475e-58
-1.59934e-62
-6.26267e-57
-9.47128e-61
-2.81544e-55
-5.133e-59
-1.17301e-53
-2.57826e-57
-4.57812e-52
-1.21317e-55
-1.74363e-50
-5.39399e-54
-1.15828e-48
-2.31474e-52
-9.54241e-47
-1.0912e-50
-1.65267e-45
-4.88448e-49
-4.61201e-45
-6.47555e-48
-1.34842e-44
-1.97009e-47
-1.84086e-43
-5.53814e-47
-2.51996e-41
3.65325e-44
-5.75983e-40
3.86017e-42
2.54527e-41
-1.36203e-38
-1.18033e-79
-4.32159e-84
-7.37655e-77
-2.78766e-81
-1.88952e-74
-7.95485e-79
-3.13285e-72
-1.54589e-76
-3.91836e-70
-2.33768e-74
-3.92819e-68
-2.86829e-72
-3.32629e-66
-3.02603e-70
-2.469e-64