/*--------------------------------*- C++ -*----------------------------------*\
| =========                 |                                                 |
| \\      /  F ield         | OpenFOAM: The Open Source CFD Toolbox           |
|  \\    /   O peration     | Version:  v2012                                 |
|   \\  /    A nd           | Website:  www.openfoam.com                      |
|    \\/     M anipulation  |                                                 |
\*---------------------------------------------------------------------------*/
FoamFile
{
    version     2.0;
    format      ascii;
    class       volScalarField;
    location    "0.2";
    object      epsilon;
}
// * * * * * * * * * * * * * * * * * * * * * * * * * * * * * * * * * * * * * //

dimensions      [0 2 -3 0 0 0 0];


internalField   nonuniform List<scalar> 
2268
(
0.0791213
0.232238
0.399901
0.549917
0.692676
0.835511
0.983361
1.13964
1.3063
1.48335
1.66801
1.85384
2.03026
2.18281
2.29433
2.34672
2.32143
2.22594
2.07175
1.84335
1.55084
1.15563
0.605142
0.105104
0.159125
0.2146
0.261917
0.305152
0.347512
0.391113
0.437375
0.487121
0.540496
0.59677
0.654126
0.709597
0.759299
0.79914
0.826142
0.84093
0.867529
0.931795
1.05694
1.29488
1.49967
1.18861
0.141193
0.167372
0.200396
0.227297
0.251344
0.275115
0.300168
0.327436
0.357339
0.389769
0.423983
0.458513
0.491195
0.519467
0.541049
0.555174
0.564889
0.584179
0.638477
0.766079
1.04307
1.46612
1.8902
0.166875
0.181957
0.204346
0.221707
0.237346
0.253517
0.271427
0.291692
0.314469
0.33943
0.365696
0.391784
0.415712
0.435348
0.449127
0.457291
0.464068
0.482618
0.539286
0.677618
0.967417
1.48876
2.57346
0.186135
0.195069
0.210849
0.222204
0.23276
0.244598
0.258652
0.275301
0.294498
0.315744
0.338026
0.359803
0.379162
0.394224
0.40391
0.409212
0.415401
0.436612
0.502261
0.66522
0.99904
1.61938
3.33085
0.200995
0.204881
0.216058
0.223334
0.230505
0.239539
0.251179
0.265629
0.282693
0.301738
0.321643
0.340811
0.357367
0.36963
0.376925
0.380892
0.387794
0.413256
0.4906
0.684664
1.08914
1.86896
4.25357
0.212634
0.211156
0.218729
0.223232
0.228178
0.235382
0.245451
0.258473
0.274152
0.291761
0.310093
0.3275
0.342139
0.352495
0.358242
0.361598
0.36972
0.39975
0.488842
0.71442
1.20387
2.22237
5.39188
0.221916
0.214247
0.218614
0.221253
0.224845
0.23094
0.240027
0.252127
0.266888
0.28352
0.30075
0.316884
0.330099
0.339017
0.343621
0.346621
0.355902
0.389792
0.488137
0.738509
1.30756
2.60765
6.7818
0.143354
0.326641
0.443704
0.510768
0.534753
0.526233
0.496855
0.461848
0.428989
0.401155
0.378629
0.359587
0.342656
0.325257
0.304413
0.275797
0.233266
0.170351
0.0827987
0.16556
0.231232
0.24389
0.239507
0.231499
0.221235
0.209325
0.198565
0.190026
0.183644
0.17894
0.175266
0.172042
0.168518
0.163719
0.156089
0.143212
0.122357
0.0987274
0.26399
0.244747
0.230004
0.212864
0.196383
0.181046
0.168042
0.158375
0.151816
0.147579
0.144889
0.143139
0.141873
0.140693
0.139137
0.136484
0.131664
0.124327
0.131087
0.393087
0.314085
0.271716
0.237033
0.205868
0.179651
0.160045
0.146864
0.138649
0.133776
0.130995
0.12948
0.128722
0.128418
0.12835
0.128267
0.127966
0.128899
0.156534
0.590742
0.44795
0.359604
0.294646
0.238982
0.194729
0.163992
0.144558
0.133007
0.12643
0.122849
0.121058
0.120388
0.120527
0.121382
0.123013
0.125836
0.132729
0.176917
0.909159
0.664246
0.500789
0.38752
0.294236
0.222762
0.175749
0.14743
0.131188
0.122173
0.117364
0.115021
0.114229
0.114598
0.116092
0.118979
0.124136
0.135602
0.193496
1.40491
0.960893
0.697595
0.518536
0.373476
0.263863
0.194462
0.154339
0.132058
0.119948
0.113561
0.110459
0.109396
0.109854
0.111802
0.115645
0.122614
0.137713
0.207205
2.17639
1.29678
0.933635
0.684931
0.47808
0.319063
0.220222
0.164947
0.135172
0.119316
0.111029
0.106987
0.105531
0.105967
0.108229
0.112811
0.121213
0.13928
0.219081
0.23014
0.214712
0.215347
0.216245
0.218731
0.223926
0.232171
0.24343
0.25731
0.272963
0.289036
0.303762
0.315305
0.32242
0.325422
0.32755
0.337374
0.374116
0.479398
0.745816
1.36772
2.75485
4.86471
0.240294
0.210643
0.204967
0.203706
0.205498
0.210427
0.218455
0.229425
0.242892
0.257943
0.273107
0.286453
0.296004
0.30054
0.300627
0.299754
0.30605
0.336286
0.425777
0.649745
1.17399
2.28564
3.72838
0.249185
0.204182
0.19207
0.188547
0.189628
0.194358
0.202314
0.213194
0.22648
0.241164
0.255602
0.267575
0.274793
0.275935
0.271798
0.266005
0.26563
0.283435
0.345693
0.510073
0.917162
1.85918
3.07298
0.257927
0.197238
0.179183
0.173333
0.173385
0.177542
0.185082
0.195581
0.208442
0.22256
0.236084
0.246408
0.250813
0.247986
0.239391
0.229355
0.224531
0.234881
0.278847
0.405482
0.754008
1.69152
2.90022
0.267045
0.190707
0.167566
0.159531
0.158276
0.161399
0.167989
0.177536
0.189395
0.202404
0.214554
0.222852
0.224189
0.217706
0.206411
0.196168
0.193391
0.204116
0.244294
0.37395
0.64847
1.54609
2.86988
0.276778
0.185068
0.157801
0.147847
0.145125
0.146836
0.151958
0.159919
0.170056
0.181234
0.191434
0.197427
0.195991
0.187524
0.177452
0.172318
0.175505
0.192111
0.243049
0.35408
0.571337
1.3164
2.80973
0.287147
0.180591
0.150105
0.138505
0.134278
0.134374
0.137684
0.143575
0.151376
0.160062
0.167804
0.171466
0.168355
0.161068
0.15658
0.158275
0.167879
0.22831
0.345194
0.462514
0.653499
1.21554
2.6795
0.297809
0.177443
0.144467
0.131443
0.12582
0.12433
0.125776
0.129455
0.134684
0.140582
0.145718
0.14748
0.144627
0.141943
0.14389
0.151675
0.216837
0.381948
0.492152
0.576977
0.742188
1.18772
2.45578
0.307989
0.175985
0.140677
0.126381
0.119605
0.116783
0.116632
0.118414
0.121476
0.125115
0.128389
0.129346
0.128445
0.13056
0.137831
0.223829
0.450746
0.595224
0.619792
0.647243
0.792393
1.18231
2.12595
0.316902
0.177474
0.138459
0.122929
0.115313
0.111581
0.110373
0.110989
0.112867
0.115452
0.118015
0.119195
0.120782
0.127779
0.245502
0.506383
0.693858
0.720208
0.666249
0.661982
0.796283
1.15378
1.84696
0.325383
0.185498
0.137901
0.120885
0.112677
0.108468
0.106798
0.107079
0.109015
0.112504
0.118365
0.1221
0.1355
0.339633
0.579165
0.766744
0.803057
0.728474
0.648375
0.641093
0.763976
1.06981
1.58286
0.357657
0.197987
0.139825
0.121594
0.113281
0.109271
0.108128
0.109733
0.116214
0.148136
0.19859
0.265028
0.392528
0.599696
0.793002
0.855323
0.786429
0.675773
0.597789
0.59415
0.698319
0.940651
1.33094
0.508339
0.25463
0.182973
0.145109
0.135097
0.13825
0.150601
0.171725
0.20264
0.247978
0.315939
0.416867
0.566482
0.732657
0.831139
0.809164
0.705615
0.59975
0.535452
0.535275
0.615977
0.792167
1.07331
0.619299
0.298619
0.206411
0.165422
0.157703
0.167793
0.190106
0.223737
0.269814
0.330695
0.409932
0.513037
0.635138
0.733729
0.762197
0.707007
0.608787
0.522442
0.473979
0.475355
0.533176
0.652242
0.837873
0.643593
0.282834
0.198732
0.173157
0.175169
0.193368
0.223738
0.264951
0.31715
0.381748
0.459211
0.54572
0.626828
0.673382
0.662407
0.600051
0.520206
0.454662
0.419199
0.419698
0.457203
0.53099
0.641288
0.618475
0.249372
0.188467
0.177655
0.188192
0.212411
0.247733
0.292498
0.345842
0.406753
0.472431
0.535617
0.582468
0.595724
0.567787
0.510561
0.448842
0.399682
0.372702
0.370276
0.390735
0.430769
0.487594
0.613489
0.237416
0.185648
0.182228
0.197822
0.225525
0.262695
0.307471
0.357867
0.411116
0.462613
0.504844
0.527825
0.523185
0.491174
0.44313
0.39488
0.356719
0.334215
0.327862
0.335026
0.351801
0.374715
0.627694
0.237232
0.187846
0.186903
0.204197
0.232699
0.269395
0.31185
0.357228
0.401829
0.440677
0.467555
0.476323
0.463906
0.433396
0.393758
0.354918
0.323502
0.302797
0.292512
0.290049
0.291988
0.295462
0.644073
0.240696
0.191317
0.190473
0.207367
0.234747
0.269265
0.308037
0.347769
0.384516
0.413733
0.430802
0.432278
0.417663
0.390511
0.35746
0.324944
0.297476
0.27716
0.263551
0.254565
0.247651
0.240892
0.652215
0.243262
0.193659
0.191921
0.207223
0.232264
0.26355
0.29802
0.332298
0.362623
0.385148
0.396551
0.39496
0.380876
0.357422
0.329407
0.301233
0.276172
0.255762
0.239728
0.226636
0.214807
0.203149
0.647994
0.242905
0.193601
0.190611
0.203698
0.225716
0.253224
0.283237
0.312557
0.33782
0.355853
0.364225
0.361858
0.349479
0.329557
0.305574
0.280674
0.257387
0.23701
0.219553
0.2042
0.189985
0.176397
0.631602
0.239127
0.190744
0.186396
0.196972
0.215642
0.239164
0.264791
0.289657
0.31086
0.325792
0.332588
0.330523
0.320229
0.303555
0.283039
0.26097
0.2394
0.219532
0.201659
0.185471
0.170527
0.156675
0.605633
0.232358
0.18534
0.179605
0.187567
0.202798
0.222334
0.243747
0.264566
0.282342
0.294928
0.300818
0.299428
0.2912
0.277469
0.260099
0.240766
0.221154
0.202414
0.18506
0.16915
0.154596
0.14145
0.573564
0.223514
0.178054
0.170926
0.176289
0.188153
0.203848
0.221282
0.23838
0.253112
0.263705
0.268908
0.268189
0.261803
0.250687
0.236199
0.219658
0.202329
0.185314
0.169263
0.154469
0.141063
0.129192
0.53881
0.213641
0.169729
0.161218
0.164089
0.172781
0.184896
0.198653
0.212339
0.224293
0.233058
0.237582
0.237366
0.232514
0.223666
0.211811
0.198055
0.183253
0.168411
0.154227
0.141118
0.129328
0.119038
0.5042
0.203673
0.161178
0.15133
0.151894
0.157702
0.166594
0.17705
0.187667
0.197099
0.204158
0.207962
0.20805
0.204422
0.197504
0.188029
0.176886
0.164672
0.152227
0.140215
0.129089
0.119132
0.110526
0.471698
0.194295
0.153051
0.141957
0.140459
0.143741
0.149835
0.15743
0.165373
0.172579
0.178085
0.181162
0.181393
0.178718
0.173411
0.166006
0.157187
0.147439
0.13738
0.127593
0.118504
0.110389
0.103412
0.442402
0.185918
0.145775
0.133574
0.130297
0.131444
0.135196
0.140404
0.146107
0.151424
0.155582
0.157978
0.158249
0.156303
0.152305
0.146631
0.139778
0.132243
0.124374
0.116661
0.109473
0.103054
0.0975434
0.416744
0.178714
0.13956
0.126421
0.121667
0.121069
0.122931
0.126221
0.13012
0.133906
0.136948
0.138756
0.139016
0.137621
0.134664
0.130401
0.125202
0.119479
0.113477
0.107558
0.102018
0.0970559
0.0927862
0.39471
0.172701
0.134451
0.120556
0.114612
0.112635
0.11302
0.114823
0.117326
0.11992
0.122086
0.123417
0.123647
0.122667
0.120518
0.117373
0.113495
0.109193
0.104703
0.100245
0.0960479
0.0922703
0.0889999
0.376075
0.16782
0.130396
0.11591
0.109033
0.105992
0.105259
0.105946
0.107406
0.109108
0.110612
0.111578
0.111777
0.111103
0.109565
0.107273
0.104411
0.101204
0.0978712
0.094544
0.0913916
0.0885328
0.0860341
0.360614
0.164015
0.127312
0.112357
0.104754
0.10091
0.0993507
0.0992249
0.0999283
0.100983
0.102006
0.102702
0.102874
0.10242
0.101328
0.0996665
0.0975636
0.0951818
0.0926924
0.0902058
0.0878335
0.0856619
0.0837394
0.34833
0.161314
0.125136
0.109767
0.101587
0.0971414
0.0949837
0.0942798
0.0944491
0.095047
0.0957268
0.0962284
0.0963751
0.0960708
0.0952924
0.0940798
0.0925209
0.0907338
0.0888457
0.0869658
0.0851576
0.0834839
0.0819791
0.339711
0.159908
0.123874
0.108041
0.0993673
0.0944648
0.0918812
0.0907768
0.0905778
0.0908588
0.0912977
0.0916578
0.0917788
0.0915694
0.0909997
0.0900909
0.0889046
0.0875288
0.0860619
0.0845951
0.0831777
0.0818512
0.0806382
0.336098
0.160266
0.123637
0.107134
0.0979732
0.0927095
0.0898281
0.0884557
0.0880105
0.0880757
0.0883457
0.0886009
0.0886933
0.088536
0.0880944
0.0873777
0.0864297
0.0853185
0.0841237
0.0829203
0.0817547
0.0806523
0.0796279
0.340338
0.163254
0.12465
0.107046
0.0973217
0.0917538
0.088673
0.0871351
0.0865351
0.0864579
0.0866102
0.0867861
0.0868473
0.0867108
0.0863386
0.0857307
0.0849179
0.0839545
0.0829078
0.0818429
0.0808068
0.0798175
0.0788873
0.357977
0.170212
0.127202
0.107775
0.0973416
0.0915096
0.0883169
0.0867009
0.0860198
0.0858569
0.08593
0.0860463
0.0860769
0.0859423
0.0856015
0.0850461
0.0842945
0.0833881
0.0823845
0.0813443
0.0803139
0.0793199
0.0783822
0.398743
0.182828
0.131436
0.109206
0.0979192
0.0918947
0.0886939
0.0870892
0.0863944
0.0861937
0.0862195
0.0862943
0.0863001
0.0861617
0.0858358
0.0853046
0.0845717
0.0836608
0.0826139
0.0814834
0.0803168
0.0791728
0.0781018
0.477884
0.202374
0.136816
0.110884
0.0988175
0.0928026
0.0897567
0.0882725
0.0876336
0.0874391
0.0874456
0.0874965
0.0874886
0.0873536
0.0870478
0.0865442
0.0858275
0.0848918
0.0837432
0.0824022
0.0809056
0.0794126
0.0780455
0.622337
0.227373
0.141065
0.111726
0.0996236
0.0941049
0.0914825
0.09026
0.0897508
0.0896021
0.0896118
0.0896542
0.0896464
0.0895321
0.0892715
0.0888325
0.08818
0.0872649
0.0860154
0.0843388
0.082174
0.080047
0.0781904
0.907266
0.246647
0.138666
0.109979
0.0998814
0.0957467
0.0939245
0.0931226
0.0928096
0.0927339
0.0927587
0.0928005
0.0928044
0.0927323
0.0925557
0.0922468
0.091764
0.0910195
0.0898148
0.0877336
0.0840973
0.0809452
0.0784384
1.65047
0.215015
0.120684
0.104242
0.0996145
0.0979589
0.0972911
0.0970217
0.0969347
0.0969338
0.096968
0.0970059
0.0970267
0.0970163
0.0969648
0.0968628
0.0966921
0.0963903
0.0957143
0.0937176
0.0861838
0.0816877
0.0786069
8.48201
7.70766
7.81187
5.22604
5.20106
5.93233
6.26229
6.28297
3.82543
4.35885
4.62499
4.85608
3.2551
3.53868
3.77017
3.91561
3.08034
3.12927
3.16989
3.27854
3.09323
2.99714
2.86552
2.82572
3.04239
3.00928
2.75757
2.57035
2.97105
2.98307
2.75616
2.48417
2.82891
2.97902
2.77488
2.50409
2.58713
2.94164
2.82776
2.58384
2.2527
2.79586
2.90433
2.75168
1.86905
2.34389
2.79493
3.00145
1.45875
1.79416
2.21015
2.65268
1.07978
1.2809
1.53982
1.85854
0.773093
0.876878
1.00698
1.16612
0.548344
0.593235
0.646426
0.70793
0.396047
0.410647
0.426822
0.444138
0.297465
0.298432
0.299332
0.299949
0.234376
0.229892
0.225268
0.220446
0.193382
0.187085
0.180877
0.174751
0.16583
0.159259
0.152975
0.146972
0.146447
0.140242
0.134439
0.129019
0.132103
0.126533
0.121405
0.116689
0.120984
0.116151
0.11175
0.107742
0.112061
0.107986
0.104298
0.100959
0.104767
0.101416
0.0983919
0.0956577
0.0987793
0.0960844
0.0936506
0.0914451
0.093894
0.0917653
0.0898348
0.0880757
0.0899539
0.0882925
0.0867751
0.0853801
0.0868174
0.0855268
0.0843364
0.0832296
0.0843497
0.0833434
0.0824042
0.0815193
0.0824252
0.0816308
0.0808795
0.0801616
0.0809328
0.0802921
0.0796781
0.0790831
0.0797794
0.0792468
0.07873
0.0782233
0.0788914
0.0784301
0.0779782
0.0775317
0.0782149
0.077792
0.077377
0.0769665
0.0777136
0.0772962
0.0768901
0.0764927
0.0773668
0.0769175
0.0764902
0.0760821
0.0771613
0.0766378
0.0761571
0.0757143
0.0770742
0.0764379
0.0758763
0.0753801
0.0770503
0.0762881
0.0756394
0.0750871
0.0770198
0.0761706
0.0754648
0.0748777
2.43227
1.64733
1.30425
0.983476
0.668671
0.420894
0.268237
0.18562
0.142672
0.120385
0.108866
0.103189
0.100976
0.101225
0.103783
0.109215
0.119325
0.140917
0.23312
3.99035
2.16425
1.77638
1.44153
1.01493
0.622323
0.365694
0.228648
0.16036
0.126352
0.109221
0.100782
0.0972481
0.0970095
0.0996742
0.10579
0.117366
0.142059
0.246179
4.93207
4.043
2.65227
2.00801
1.44757
0.893883
0.499786
0.28714
0.184633
0.135688
0.11182
0.100215
0.09519
0.0943393
0.0969445
0.103454
0.115961
0.142651
0.255219
4.25924
5.28639
3.98326
2.69361
1.94084
1.2345
0.674781
0.362212
0.214991
0.147573
0.115904
0.100845
0.0942535
0.0927449
0.0952029
0.101928
0.115018
0.142989
0.261664
3.59664
4.71367
5.36874
3.43831
2.4398
1.62362
0.89117
0.454747
0.251075
0.161356
0.120889
0.102196
0.0940428
0.0918897
0.0941671
0.101
0.114449
0.143259
0.266592
2.9242
3.67866
6.05766
4.26668
2.93407
2.03152
1.14287
0.564588
0.292583
0.176543
0.126327
0.10392
0.0942773
0.0915297
0.0936181
0.100478
0.114119
0.143421
0.270106
2.60878
3.14907
4.80243
5.08224
3.49122
2.45643
1.41802
0.688994
0.339615
0.192996
0.131932
0.105691
0.0946678
0.0914211
0.0933535
0.100213
0.11395
0.143511
0.272477
2.30793
2.56234
3.40306
4.8786
4.10011
2.92585
1.70952
0.824954
0.386685
0.207364
0.136129
0.106832
0.0948835
0.0913579
0.0932209
0.100089
0.113871
0.143545
0.273955
2.22021
2.31359
2.76336
4.15965
4.45501
3.3285
1.94024
0.916956
0.413999
0.213865
0.137256
0.106795
0.0946805
0.0911852
0.0931003
0.100013
0.113825
0.143525
0.274704
2.24879
2.34231
2.99204
4.05271
4.63042
3.50555
1.98601
0.909826
0.403541
0.207743
0.134139
0.105254
0.0939174
0.0908018
0.0929059
0.0999153
0.113768
0.143451
0.274874
2.41252
2.54198
3.31747
4.53554
4.61586
3.31239
1.75115
0.777902
0.351271
0.188796
0.126956
0.102297
0.0925986
0.0901715
0.0925905
0.0997545
0.113674
0.143321
0.274608
2.78566
3.0421
3.85453
4.74058
4.05921
2.49741
1.2378
0.563406
0.276337
0.163043
0.117479
0.0984509
0.0908703
0.0893217
0.0921451
0.0995136
0.113528
0.143138
0.274199
3.02179
3.45521
4.01237
4.07737
2.79337
1.53634
0.754336
0.373156
0.20842
0.138477
0.107947
0.0943796
0.0889415
0.0883197
0.091591
0.0991994
0.113333
0.142905
0.273626
2.32641
2.75649
2.77922
2.3364
1.51115
0.841439
0.447151
0.251975
0.161555
0.119707
0.0999205
0.0906408
0.0870328
0.0872654
0.0909799
0.0988409
0.113108
0.14263
0.272686
1.41676
1.62193
1.50592
1.17437
0.767976
0.460811
0.27739
0.180386
0.131231
0.10633
0.0936271
0.0874374
0.0852689
0.0862329
0.0903577
0.0984682
0.112872
0.14233
0.271398
0.802993
0.857857
0.765509
0.59189
0.410203
0.273931
0.188312
0.139184
0.111955
0.0969502
0.088786
0.0847644
0.0836999
0.0852735
0.0897659
0.098113
0.112649
0.142022
0.269827
0.469003
0.467864
0.410906
0.327371
0.245728
0.18309
0.141238
0.115266
0.0996442
0.090377
0.0850938
0.0825788
0.0823509
0.0844242
0.0892384
0.0978021
0.112458
0.141725
0.26804
0.299488
0.284218
0.249594
0.207562
0.168257
0.137343
0.115518
0.101003
0.0916242
0.0857205
0.0822824
0.0808201
0.0812264
0.0837062
0.0887978
0.0975547
0.112315
0.14145
0.266101
0.212441
0.196157
0.173979
0.15059
0.129731
0.1131
0.10083
0.0921789
0.0862528
0.0823712
0.0801408
0.0794261
0.0803167
0.0831272
0.0884555
0.0973816
0.112227
0.141208
0.264064
0.165349
0.151197
0.136049
0.121606
0.109307
0.0994886
0.0920066
0.0864863
0.0825472
0.0799264
0.0785107
0.0783384
0.0796039
0.0826845
0.0882142
0.0972864
0.112199
0.141005
0.26197
0.138109
0.126404
0.11542
0.105755
0.0977223
0.0913613
0.0864165
0.0826596
0.0799218
0.0781212
0.0772741
0.077505
0.079065
0.0823679
0.088069
0.0972674
0.112233
0.140853
0.259878
0.121213
0.111626
0.103292
0.0963447
0.090695
0.0862059
0.0826947
0.0799927
0.0780213
0.0767785
0.0763417
0.0768797
0.0786749
0.0821625
0.0880102
0.0973179
0.112328
0.14077
0.257904
0.11001
0.10215
0.0956136
0.0903377
0.0861183
0.0827568
0.0801105
0.0780795
0.0766231
0.0757756
0.0756444
0.0764215
0.0784074
0.0820498
0.0880235
0.0974263
0.112474
0.140753
0.256114
0.102125
0.09567
0.0904257
0.0862601
0.0829567
0.0803311
0.0782572
0.0766765
0.0755822
0.0750251
0.0751275
0.0760945
0.0782368
0.0820097
0.0880916
0.0975763
0.112654
0.140783
0.254516
0.0962988
0.0909992
0.0867293
0.0833515
0.0806772
0.0785551
0.0768871
0.0756309
0.0748005
0.0744628
0.0747475
0.0758673
0.0781389
0.082022
0.0881963
0.0977504
0.11285
0.140834
0.253077
0.0918402
0.0874957
0.0839857
0.0811957
0.078979
0.0772206
0.0758488
0.0748375
0.0742093
0.0740406
0.0744698
0.0757135
0.0780921
0.0820679
0.0883201
0.0979316
0.113045
0.140891
0.251799
0.0883502
0.0847933
0.081887
0.0795509
0.0776812
0.0761972
0.0750497
0.0742263
0.0737569
0.0737223
0.0742667
0.0756111
0.0780782
0.082131
0.088448
0.0981059
0.113225
0.140942
0.250665
0.085584
0.0826701
0.0802467
0.0782682
0.0766694
0.0753988
0.0744262
0.0737502
0.0734067
0.0734803
0.0741173
0.0755421
0.0780821
0.0821983
0.0885681
0.0982623
0.113382
0.140983
0.249693
0.0833786
0.0809823
0.0789448
0.0772511
0.0758677
0.0747668
0.0739333
0.0733746
0.0731318
0.0732927
0.0740057
0.0754969
0.0780934
0.0822593
0.0886703
0.0983926
0.113508
0.141012
0.248907
0.0816161
0.0796301
0.0778997
0.0764339
0.0752239
0.0742599
0.0735386
0.0730742
0.0729123
0.0731431
0.0739172
0.075462
0.0781052
0.0823111
0.088754
0.0984941
0.113603
0.141033
0.248332
0.080206
0.0785407
0.0770533
0.0757704
0.0747009
0.0738484
0.0732183
0.0728303
0.0727333
0.0730199
0.0738423
0.0754292
0.0781086
0.082345
0.088811
0.0985627
0.113661
0.141025
0.247838
0.0790759
0.0776581
0.0763622
0.0752262
0.0742712
0.0735102
0.0729547
0.0726288
0.0725839
0.0729146
0.0737744
0.0753932
0.0780995
0.0823576
0.0888388
0.098596
0.113682
0.140988
0.247418
0.0781669
0.0769381
0.0757926
0.0747749
0.0739139
0.0732284
0.0727345
0.0724592
0.072456
0.0728211
0.0737093
0.0753512
0.0780761
0.0823481
0.0888378
0.0985954
0.113668
0.140926
0.247074
0.0774301
0.0763439
0.0753166
0.0743949
0.0736117
0.0729894
0.0725469
0.0723132
0.0723434
0.0727351
0.0736441
0.0753019
0.0780383
0.0823177
0.0888098
0.0985636
0.113622
0.140843
0.246806
0.0768241
0.0758438
0.0749097
0.074067
0.0733496
0.0727813
0.0723826
0.0721837
0.0722411
0.0726533
0.0735771
0.0752449
0.0779871
0.0822681
0.0887579
0.0985046
0.113549
0.140746
0.246614
0.0763124
0.0754085
0.0745486
0.0737729
0.0731133
0.0725931
0.0722332
0.0720646
0.0721448
0.0725731
0.0735074
0.0751807
0.077924
0.0822024
0.088686
0.0984229
0.113455
0.140638
0.246494
0.0758625
0.0750105
0.0742112
0.0734952
0.0728893
0.0724143
0.0720908
0.0719502
0.0720507
0.0724926
0.0734344
0.0751101
0.0778514
0.0821239
0.0885985
0.0983242
0.113345
0.140527
0.246437
0.0754463
0.074626
0.0738785
0.0732191
0.072666
0.0722363
0.071949
0.0718361
0.0719562
0.0724105
0.0733584
0.0750349
0.0777722
0.082037
0.0885009
0.0982149
0.113227
0.140418
0.246432
0.0750453
0.0742409
0.0735402
0.0729372
0.0724383
0.0720552
0.0718053
0.0717207
0.0718607
0.0723274
0.0732813
0.074958
0.0776909
0.0819473
0.0884003
0.0981031
0.11311
0.140318
0.246456
0.0746577
0.0738598
0.0732039
0.0726574
0.0722131
0.071877
0.0716647
0.0716084
0.0717683
0.0722476
0.0732076
0.0748849
0.0776139
0.0818628
0.0883059
0.0979993
0.113004
0.140241
0.246475
0.0743098
0.0735171
0.0729028
0.0724082
0.0720137
0.07172
0.0715415
0.0715105
0.0716884
0.0721792
0.0731452
0.0748238
0.0775501
0.0817932
0.0882289
0.0979161
0.112925
0.140206
0.246446
0.0740692
0.0732854
0.0727012
0.0722419
0.0718805
0.0716148
0.0714585
0.0714445
0.0716346
0.0721335
0.073104
0.0747841
0.0775093
0.0817491
0.0881802
0.0978637
0.112876
0.14019
0.246258
)
;

boundaryField
{
    leftWall
    {
        lowReCorrection 0;
        blending        stepwise;
        n               2;
        type            epsilonWallFunction;
        value           nonuniform List<scalar> 
50
(
0.0791213
0.105104
0.141193
0.166875
0.186135
0.200995
0.212634
0.221916
0.23014
0.240294
0.249185
0.257927
0.267045
0.276778
0.287147
0.297809
0.307989
0.316902
0.325383
0.357657
0.508339
0.619299
0.643593
0.618475
0.613489
0.627694
0.644073
0.652215
0.647994
0.631602
0.605633
0.573564
0.53881
0.5042
0.471698
0.442402
0.416744
0.39471
0.376075
0.360614
0.34833
0.339711
0.336098
0.340338
0.357977
0.398743
0.477884
0.622337
0.907266
1.65047
)
;
    }
    rightWall
    {
        lowReCorrection 0;
        blending        stepwise;
        n               2;
        type            epsilonWallFunction;
        value           nonuniform List<scalar> 
50
(
0.0827987
0.0987274
0.131087
0.156534
0.176917
0.193496
0.207205
0.219081
0.23312
0.246179
0.255219
0.261664
0.266592
0.270106
0.272477
0.273955
0.274704
0.274874
0.274608
0.274199
0.273626
0.272686
0.271398
0.269827
0.26804
0.266101
0.264064
0.26197
0.259878
0.257904
0.256114
0.254516
0.253077
0.251799
0.250665
0.249693
0.248907
0.248332
0.247838
0.247418
0.247074
0.246806
0.246614
0.246494
0.246437
0.246432
0.246456
0.246475
0.246446
0.246258
)
;
    }
    lowerWall
    {
        lowReCorrection 0;
        blending        stepwise;
        n               2;
        type            epsilonWallFunction;
        value           nonuniform List<scalar> 
62
(
0.0791213
0.232238
0.399901
0.549917
0.692676
0.835511
0.983361
1.13964
1.3063
1.48335
1.66801
1.85384
2.03026
2.18281
2.29433
2.34672
2.32143
2.22594
2.07175
1.84335
1.55084
1.15563
0.605142
0.605142
1.18861
1.8902
2.57346
3.33085
4.25357
5.39188
6.7818
8.48201
7.70766
7.81187
5.22604
0.143354
0.16556
0.26399
0.393087
0.590742
0.909159
1.40491
2.17639
0.143354
0.326641
0.443704
0.510768
0.534753
0.526233
0.496855
0.461848
0.428989
0.401155
0.378629
0.359587
0.342656
0.325257
0.304413
0.275797
0.233266
0.170351
0.0827987
)
;
    }
    atmosphere
    {
        type            inletOutlet;
        inletValue      uniform 0.1;
        value           nonuniform List<scalar> 
46
(
0.1
0.1
0.1
0.1
0.1
0.1
0.1
0.1
0.1
0.1
0.1
0.1
0.1
0.1
0.1
0.1
0.1
0.1
0.1
0.1
0.0861838
0.0816877
0.0786069
0.0770198
0.0761706
0.0754648
0.0748777
0.0740692
0.0732854
0.0727012
0.0722419
0.0718805
0.0716148
0.0714585
0.0714445
0.0716346
0.0721335
0.073104
0.0747841
0.0775093
0.0817491
0.0881802
0.0978637
0.112876
0.14019
0.246258
)
;
    }
    defaultFaces
    {
        type            empty;
    }
}


// ************************************************************************* //
