/*--------------------------------*- C++ -*----------------------------------*\
| =========                 |                                                 |
| \\      /  F ield         | OpenFOAM: The Open Source CFD Toolbox           |
|  \\    /   O peration     | Version:  v2012                                 |
|   \\  /    A nd           | Website:  www.openfoam.com                      |
|    \\/     M anipulation  |                                                 |
\*---------------------------------------------------------------------------*/
FoamFile
{
    version     2.0;
    format      ascii;
    class       volScalarField;
    location    "0.2";
    object      p_rgh;
}
// * * * * * * * * * * * * * * * * * * * * * * * * * * * * * * * * * * * * * //

dimensions      [1 -1 -2 0 0 0 0];


internalField   nonuniform List<scalar> 
2268
(
2244.66
2257.33
2273.76
2289.69
2302.59
2312.24
2319.02
2322.97
2323.89
2321.6
2316.19
2308.3
2299.64
2293.55
2295.84
2315.92
2368.88
2470.92
2638.64
2869.32
3124.39
3304.87
3405.62
2242.29
2253.3
2266.54
2279.86
2290.9
2299.06
2304.46
2307.06
2306.63
2303.02
2296.4
2287.52
2278.25
2272.09
2274.97
2295.96
2347.19
2446.72
2612.24
2848.5
3125.65
3323.45
3435.52
2239.42
2249.5
2259.72
2269.74
2278
2283.69
2286.77
2287.06
2284.35
2278.51
2269.81
2259.16
2248.58
2241.76
2244.69
2266.27
2318.24
2416.28
2576.6
2806.13
3090.81
3328.46
3497.56
2234.26
2245.13
2253.52
2260.84
2266.47
2269.63
2270.21
2267.99
2262.73
2254.34
2243.14
2230.11
2217.38
2208.67
2209.93
2229.8
2279.63
2373.45
2526.29
2745.69
3025.54
3299.62
3535.07
2227.58
2239.36
2246.72
2252.13
2255.7
2256.73
2255.11
2250.61
2242.95
2232.06
2218.23
2202.45
2186.79
2174.91
2172.55
2188
2232.12
2317.91
2459.39
2665.06
2931.52
3228.03
3521.49
2219.35
2231.87
2238.52
2242.53
2244.5
2243.81
2240.33
2233.8
2223.94
2210.63
2194.11
2175.26
2156.02
2139.86
2132.21
2140.91
2176.22
2250.19
2375.51
2560.97
2801.52
3101.46
3403.86
2209.55
2222.62
2228.66
2231.55
2232.27
2230.17
2225.09
2216.77
2204.87
2189.2
2169.91
2147.72
2124.36
2102.97
2088.62
2088.61
2112.44
2170.93
2274.78
2431.5
2629.68
2905.86
3126.04
2198.22
2211.43
2217
2218.99
2218.74
2215.55
2209.18
2199.31
2185.59
2167.71
2145.68
2120.02
2092.15
2064.82
2042.61
2032.14
2041.91
2081.14
2157.81
2275.62
2413.83
2615.92
2634.67
1.17968
1.10502
1.0179
0.925834
0.839865
0.764304
0.701224
0.650201
0.609822
0.578524
0.554641
0.536594
0.522996
0.512718
0.504797
0.498588
0.493673
0.489659
0.486812
1.1919
1.11339
1.0207
0.924858
0.835452
0.758998
0.69519
0.644192
0.604321
0.573705
0.550556
0.533216
0.520258
0.510549
0.503102
0.497239
0.492553
0.488554
0.485848
1.20329
1.12334
1.02444
0.924291
0.830817
0.751423
0.686183
0.635051
0.595901
0.56635
0.544336
0.528091
0.516113
0.507261
0.500529
0.495194
0.490871
0.48702
0.484585
1.21294
1.13312
1.02696
0.922423
0.824161
0.741558
0.674754
0.623519
0.585338
0.557231
0.536722
0.52189
0.511155
0.503357
0.497486
0.492798
0.488928
0.485313
0.483084
1.21831
1.14216
1.02749
0.918466
0.815011
0.729091
0.660814
0.609641
0.572695
0.546434
0.527836
0.514748
0.505501
0.498908
0.494
0.490055
0.48672
0.483425
0.481371
1.21322
1.1504
1.02637
0.911996
0.802758
0.713345
0.643825
0.593087
0.557771
0.533818
0.517605
0.506641
0.499135
0.493896
0.490043
0.48693
0.48422
0.481345
0.479503
1.1849
1.1563
1.02424
0.902724
0.786861
0.693746
0.623366
0.573642
0.540493
0.519332
0.505974
0.49753
0.492052
0.488343
0.485652
0.483456
0.48145
0.479092
0.477536
1.10618
1.15141
1.02159
0.890223
0.766948
0.670018
0.599359
0.551436
0.521129
0.503232
0.493112
0.487518
0.484344
0.482379
0.480991
0.479794
0.47853
0.476751
0.475532
2178.13
2190.68
2195.76
2196.68
2195.23
2190.79
2182.85
2171.03
2154.85
2133.85
2107.75
2076.65
2041.36
2003.91
1967.94
1938.88
1923.34
1927.4
1953.77
1996.54
2019.77
1967.78
1381.45
2144.4
2155.67
2159.66
2159.59
2157.08
2151.4
2141.88
2127.94
2108.94
2084.09
2052.62
2013.86
1967.64
1914.76
1857.57
1799.87
1745.77
1697.22
1650.5
1594.52
1497.87
1326.45
1055.79
2105.13
2114.51
2117.1
2116.19
2112.82
2106.09
2095.2
2079.43
2057.93
2029.6
1993.07
1946.81
1889.39
1820.31
1740.73
1653.28
1560.48
1461.56
1349.25
1215.64
1014.47
884.135
895.124
2061.44
2068.52
2069.72
2068.03
2063.82
2056.05
2043.85
2026.41
2002.72
1971.41
1930.56
1877.69
1809.94
1725.32
1624.1
1508.66
1381.08
1233.94
971.277
581.417
232.462
140.223
684.747
2014.48
2019.04
2019.04
2016.6
2011.52
2002.66
1989.16
1970.17
1944.65
1911.06
1867.12
1809.51
1733.61
1635.36
1514.6
1375.59
1178.82
671.744
140.823
11.8651
0.82718
0.403676
210.048
1965.4
1967.3
1966.44
1963.32
1957.35
1947.41
1932.64
1912.27
1885.33
1850.31
1804.92
1745.44
1664.7
1555.67
1420.79
1165.35
435.898
3.37132
-2.53128
-3.76885
-4.19428
-4.04639
2.32841
1915.48
1914.48
1913.38
1909.82
1903.07
1892.09
1876.06
1854.34
1826.13
1790.16
1744.93
1687.6
1607.2
1494
1212.72
330.639
-0.917316
-3.42465
-4.13479
-4.47731
-4.66971
-4.79043
-3.78428
1865.2
1861.62
1860.81
1857.1
1849.5
1837.21
1819.48
1795.74
1765.39
1727.73
1684.18
1637.04
1568
1321.3
298.072
-1.55013
-3.46802
-3.88522
-4.11396
-4.34694
-4.5719
-4.8474
-4.9745
1810.71
1808.02
1807.08
1802.95
1794.36
1780.5
1760.77
1734.82
1702.42
1657.82
1556.28
1474.8
1284.54
295.369
-2.09483
-3.20992
-3.56338
-3.77032
-3.95637
-4.15133
-4.33962
-4.54071
-4.78465
1630.41
1606.91
1627.6
1646.14
1644.38
1614.72
1550.29
1436.09
1249.55
952.616
541.875
386.029
159.923
-2.42117
-2.82914
-3.1307
-3.37026
-3.55243
-3.71035
-3.84866
-3.96359
-4.07396
-4.25136
441.91
415.907
453.519
500.57
512.007
467.078
374.821
248.348
114.82
1.46733
-1.78288
-1.75241
-2.10948
-2.38237
-2.66926
-2.9189
-3.11709
-3.26733
-3.37766
-3.45418
-3.50456
-3.54833
-3.63167
-0.940495
0.00614732
-0.489973
-0.800513
-0.888879
-1.01895
-1.16294
-1.29673
-1.35216
-1.365
-1.49916
-1.70241
-1.97901
-2.25014
-2.48693
-2.68394
-2.83757
-2.94368
-3.00419
-3.02565
-3.01664
-2.99181
-2.97037
-0.621359
-0.576191
-0.598841
-0.631504
-0.676502
-0.748564
-0.847445
-0.970004
-1.11922
-1.32393
-1.50618
-1.69927
-1.89451
-2.06147
-2.29761
-2.4429
-2.55004
-2.61283
-2.6305
-2.60662
-2.54529
-2.45042
-2.30559
-0.62901
-0.598293
-0.614473
-0.662094
-0.727243
-0.809135
-0.909101
-1.02676
-1.16318
-1.32177
-1.47969
-1.6394
-1.75469
-1.90321
-2.09971
-2.20104
-2.26792
-2.29465
-2.27964
-2.22325
-2.12512
-1.98198
-1.76461
-0.618549
-0.607298
-0.632277
-0.679136
-0.745148
-0.825104
-0.918486
-1.02529
-1.14504
-1.27636
-1.41163
-1.54596
-1.65925
-1.76266
-1.89892
-1.96497
-1.99985
-1.99951
-1.96203
-1.88579
-1.76794
-1.60336
-1.36908
-0.61725
-0.620786
-0.646326
-0.688756
-0.747401
-0.818774
-0.901844
-0.996132
-1.10051
-1.21244
-1.32649
-1.43879
-1.54514
-1.63472
-1.7005
-1.73984
-1.75129
-1.7323
-1.68102
-1.59509
-1.47093
-1.30435
-1.08122
-0.610292
-0.622264
-0.648628
-0.687808
-0.739183
-0.801198
-0.87312
-0.954239
-1.04304
-1.13672
-1.23107
-1.32122
-1.40186
-1.46649
-1.50977
-1.52978
-1.52526
-1.49463
-1.43629
-1.3479
-1.22638
-1.06935
-0.869229
-0.592684
-0.610324
-0.638072
-0.674632
-0.719631
-0.772811
-0.833888
-0.902178
-0.976075
-1.05282
-1.12854
-1.19884
-1.25905
-1.30438
-1.3311
-1.33759
-1.32287
-1.28585
-1.22522
-1.13909
-1.02525
-0.883003
-0.708987
-0.566497
-0.587365
-0.616267
-0.650577
-0.69002
-0.735159
-0.786131
-0.842439
-0.902646
-0.96421
-1.02374
-1.07743
-1.12144
-1.15216
-1.16691
-1.16431
-1.14354
-1.1038
-1.04407
-0.962972
-0.859154
-0.733078
-0.583754
-0.534319
-0.556747
-0.58613
-0.618259
-0.652805
-0.690805
-0.732714
-0.77826
-0.826294
-0.874655
-0.920492
-0.96065
-0.992035
-1.01189
-1.01817
-1.00971
-0.985799
-0.945791
-0.888957
-0.814371
-0.721351
-0.610999
-0.483525
-0.498882
-0.52164
-0.550663
-0.58054
-0.610778
-0.642614
-0.676666
-0.712859
-0.75036
-0.787474
-0.821916
-0.851183
-0.872806
-0.884652
-0.885096
-0.873098
-0.848024
-0.809343
-0.756554
-0.689099
-0.606765
-0.510947
-0.402393
-0.462509
-0.484632
-0.512465
-0.539973
-0.566439
-0.593075
-0.620507
-0.648812
-0.677437
-0.705163
-0.730283
-0.750853
-0.764965
-0.77094
-0.767443
-0.75353
-0.728608
-0.692225
-0.644049
-0.583793
-0.511544
-0.428775
-0.336444
-0.426844
-0.447622
-0.473585
-0.498612
-0.521761
-0.544049
-0.566024
-0.587853
-0.609225
-0.629334
-0.646978
-0.660714
-0.669077
-0.670744
-0.66461
-0.64983
-0.62584
-0.592248
-0.548831
-0.495477
-0.43245
-0.361174
-0.282639
-0.392923
-0.4119
-0.43553
-0.457995
-0.478177
-0.496817
-0.514355
-0.530994
-0.546611
-0.560731
-0.57255
-0.581024
-0.585042
-0.583561
-0.575672
-0.560643
-0.537952
-0.507274
-0.468449
-0.421467
-0.366675
-0.305384
-0.238513
-0.361323
-0.378275
-0.399329
-0.419201
-0.436677
-0.452223
-0.466166
-0.478709
-0.489862
-0.499391
-0.50678
-0.51129
-0.512089
-0.50835
-0.499333
-0.484421
-0.463165
-0.435301
-0.400712
-0.359449
-0.311878
-0.259162
-0.202107
-0.332259
-0.347149
-0.365573
-0.382885
-0.397864
-0.410751
-0.421772
-0.4311
-0.438829
-0.444879
-0.448938
-0.450503
-0.448955
-0.443645
-0.433968
-0.419418
-0.399629
-0.374387
-0.343613
-0.307389
-0.266067
-0.220652
-0.171826
-0.305653
-0.318567
-0.334449
-0.349305
-0.36198
-0.372564
-0.381188
-0.387993
-0.393102
-0.396523
-0.398086
-0.397466
-0.394218
-0.387838
-0.377843
-0.363824
-0.345484
-0.32265
-0.295277
-0.263455
-0.227507
-0.188283
-0.146345
-0.281219
-0.292316
-0.305837
-0.3184
-0.328971
-0.337554
-0.344205
-0.349025
-0.352135
-0.35358
-0.353284
-0.351052
-0.346578
-0.339491
-0.329412
-0.316019
-0.299074
-0.278436
-0.254083
-0.226101
-0.194772
-0.160807
-0.124656
-0.258588
-0.268058
-0.279447
-0.289928
-0.298612
-0.30546
-0.310479
-0.313737
-0.315332
-0.315316
-0.31367
-0.310285
-0.304964
-0.297446
-0.287452
-0.274735
-0.259107
-0.240463
-0.218788
-0.194157
-0.166812
-0.137339
-0.106094
-0.237413
-0.245455
-0.254964
-0.263602
-0.270624
-0.275973
-0.279638
-0.281661
-0.282114
-0.281047
-0.278464
-0.274313
-0.26847
-0.260764
-0.251
-0.238995
-0.224613
-0.207774
-0.188471
-0.166773
-0.142879
-0.117273
-0.0902293
-0.217432
-0.224233
-0.23212
-0.239166
-0.244749
-0.248812
-0.251343
-0.252376
-0.251966
-0.250158
-0.246968
-0.242368
-0.236285
-0.228609
-0.219209
-0.207958
-0.194761
-0.179567
-0.162379
-0.14326
-0.122374
-0.100121
-0.0767112
-0.198458
-0.204195
-0.210715
-0.216416
-0.220773
-0.223738
-0.22531
-0.225529
-0.224453
-0.222124
-0.218563
-0.213754
-0.207653
-0.200187
-0.19127
-0.180816
-0.168765
-0.15509
-0.139806
-0.122973
-0.104728
-0.0854037
-0.0651616
-0.180352
-0.185196
-0.190587
-0.195178
-0.198504
-0.20053
-0.20128
-0.200817
-0.199209
-0.196505
-0.192728
-0.187871
-0.181904
-0.174777
-0.16643
-0.156808
-0.145873
-0.133618
-0.120067
-0.105279
-0.0893762
-0.0726335
-0.0551751
-0.163011
-0.167107
-0.171583
-0.175272
-0.17773
-0.178952
-0.178995
-0.177952
-0.175909
-0.172927
-0.169031
-0.164224
-0.158483
-0.151773
-0.144048
-0.135271
-0.125421
-0.114501
-0.102543
-0.0896067
-0.0758032
-0.0613625
-0.0463772
-0.146338
-0.149793
-0.153535
-0.156491
-0.158213
-0.158737
-0.158171
-0.15664
-0.154247
-0.151061
-0.147116
-0.14242
-0.136958
-0.130703
-0.12362
-0.115684
-0.106882
-0.0972214
-0.086737
-0.075492
-0.0635937
-0.0512356
-0.0384794
-0.130148
-0.133121
-0.136265
-0.138615
-0.139688
-0.139595
-0.138509
-0.136582
-0.133926
-0.130613
-0.126682
-0.122147
-0.116999
-0.11122
-0.104783
-0.0976701
-0.0898731
-0.0814009
-0.0722856
-0.0625954
-0.0524477
-0.0420071
-0.0312983
-0.114136
-0.117063
-0.119667
-0.121443
-0.121895
-0.121242
-0.119723
-0.117498
-0.114675
-0.11132
-0.107473
-0.103151
-0.0983524
-0.0930665
-0.0872765
-0.0809684
-0.0741357
-0.0667834
-0.0589383
-0.0506767
-0.0421566
-0.0335204
-0.0247355
-0.0981626
-0.101782
-0.103738
-0.10481
-0.104599
-0.103427
-0.10156
-0.0991438
-0.0962593
-0.0929574
-0.0892714
-0.0852206
-0.0808122
-0.076044
-0.0709073
-0.0653917
-0.0594885
-0.0531946
-0.0465218
-0.0395569
-0.0325607
-0.0256725
-0.0187425
-0.0826331
-0.0875164
-0.0884282
-0.0884991
-0.0875682
-0.0859421
-0.0838397
-0.08135
-0.0785123
-0.0753559
-0.0719072
-0.0681887
-0.064216
-0.0599967
-0.0555295
-0.0508055
-0.0458118
-0.0405287
-0.0349269
-0.0290803
-0.0235005
-0.0183764
-0.0132861
-0.0679547
-0.0750998
-0.0739006
-0.0723095
-0.070651
-0.0687384
-0.0665569
-0.0641181
-0.0614249
-0.0584911
-0.0553417
-0.0520057
-0.048509
-0.0448693
-0.0410922
-0.0371704
-0.0330852
-0.0287778
-0.0240661
-0.0188941
-0.0146242
-0.01138
-0.00824681
-0.0507808
-0.067598
-0.0608507
-0.0561853
-0.0538379
-0.0518534
-0.0497409
-0.0474474
-0.0449636
-0.0423021
-0.0394938
-0.0365774
-0.03359
-0.03056
-0.027501
-0.0244076
-0.0212492
-0.0178678
-0.0136101
-0.00772419
-0.00463673
-0.00392612
-0.00324678
-0.0201651
-0.0637689
-0.0454888
-0.0381011
-0.0353597
-0.0332979
-0.0312545
-0.0291257
-0.0268838
-0.0245437
-0.0221443
-0.0197337
-0.0173594
-0.0150602
-0.0128579
-0.0107433
-0.00865202
-0.00632258
-0.00259667
0.00516992
0.00694829
0.00289985
0.00106608
245.53
116.715
-1.4099
0.780685
710.194
533.379
91.27
1.68312
850.431
786.892
379.066
28.042
827.486
800.161
750.695
201.126
804.759
881.549
858.573
376.296
358.945
940.235
941.429
838.474
5.27774
432.278
1022.99
923.367
-2.82175
12.0295
617.185
934.447
-4.4399
-0.439625
39.9838
559.033
-4.25674
-3.40669
3.06196
61.5121
-3.53832
-3.28468
-1.63318
6.02724
-2.86494
-2.45345
-1.31315
0.277611
-2.0871
-1.76383
-1.29572
-0.543707
-1.48952
-1.25083
-0.929614
-0.515084
-1.10537
-0.892568
-0.637077
-0.344294
-0.846383
-0.664092
-0.457038
-0.236554
-0.668896
-0.516678
-0.349216
-0.178326
-0.541537
-0.415961
-0.280366
-0.14556
-0.4445
-0.341146
-0.230929
-0.123118
-0.367575
-0.282334
-0.192269
-0.10505
-0.305636
-0.235113
-0.161092
-0.0898122
-0.255513
-0.196929
-0.135711
-0.076906
-0.21471
-0.16579
-0.114813
-0.065879
-0.181248
-0.140159
-0.0974067
-0.0563618
-0.153614
-0.118895
-0.0827867
-0.0481065
-0.130568
-0.101062
-0.0703776
-0.0408964
-0.11107
-0.0858705
-0.0596805
-0.0345139
-0.0943585
-0.0727566
-0.0503379
-0.0287979
-0.0799814
-0.061409
-0.042169
-0.0236873
-0.0676805
-0.0516709
-0.0351036
-0.0191909
-0.0572293
-0.0433969
-0.0290765
-0.015319
-0.0483423
-0.0363765
-0.0239655
-0.0120374
-0.0406883
-0.0303495
-0.0196001
-0.00926613
-0.0339575
-0.0250675
-0.0158085
-0.00691021
-0.0279198
-0.0203488
-0.0124622
-0.0048928
-0.0224444
-0.0160964
-0.00949446
-0.00317396
-0.0174784
-0.0122807
-0.00689069
-0.00174917
-0.0130081
-0.00890461
-0.00466261
-0.000634181
-0.00902964
-0.00597632
-0.0028256
0.000151945
-0.0055201
-0.00349737
-0.00138812
0.000595642
-0.00229796
-0.00137558
-0.000312917
0.000706299
0.000849211
0.000795719
0.000739314
0.000693306
0.803467
1.13023
1.02048
0.865574
0.728045
0.625165
0.555544
0.51233
0.488069
0.476316
0.471889
0.471176
0.471938
0.472991
0.473837
0.474272
0.474135
0.473243
0.472494
1.72957
1.41737
1.07806
0.823903
0.645456
0.533847
0.471715
0.442195
0.432412
0.433511
0.439667
0.447285
0.454399
0.460167
0.464421
0.467259
0.468774
0.469038
0.468952
1.56206
1.70737
1.13719
0.725906
0.499267
0.392401
0.353224
0.349819
0.363393
0.383204
0.403511
0.421489
0.43605
0.447109
0.455092
0.460541
0.463902
0.465482
0.466232
1.86679
1.73676
1.03993
0.469845
0.232117
0.174493
0.191187
0.234284
0.283003
0.328081
0.365972
0.395939
0.418581
0.435099
0.446809
0.454829
0.460045
0.462995
0.464696
9.98808
1.42894
0.457173
-0.093033
-0.228997
-0.143484
-0.0149731
0.101999
0.198353
0.274006
0.331398
0.373761
0.404222
0.425718
0.440701
0.45088
0.457723
0.461914
0.464694
71.9326
0.507311
-0.668158
-1.07289
-0.915367
-0.550524
-0.242339
-0.0284368
0.123354
0.230436
0.305763
0.358751
0.395382
0.420488
0.437682
0.449423
0.457399
0.462648
0.466146
105.442
-0.743187
-2.18506
-2.28385
-1.67124
-0.949426
-0.428439
-0.125609
0.0779249
0.209144
0.296332
0.35502
0.39436
0.420736
0.438574
0.450782
0.459242
0.465131
0.469151
466.167
0.637276
-3.28025
-3.3255
-2.19523
-1.17957
-0.508371
-0.133397
0.0865579
0.221977
0.308643
0.36533
0.402538
0.427108
0.443624
0.455023
0.46317
0.469209
0.473524
552.201
100.918
-0.325359
-3.1816
-2.32777
-1.12776
-0.395035
-0.0360462
0.1581
0.272895
0.344148
0.389976
0.41975
0.439276
0.452455
0.461772
0.468803
0.474495
0.478857
318.967
320.826
40.6264
-0.558679
-1.48324
-0.648826
-0.0758761
0.167639
0.286874
0.355796
0.398345
0.425901
0.443903
0.455775
0.464002
0.470214
0.475472
0.48039
0.484565
55.4837
123.155
75.2768
6.87563
0.241474
0.201145
0.369176
0.42699
0.443586
0.453442
0.461153
0.467108
0.471289
0.474215
0.476656
0.4792
0.482295
0.486154
0.489957
4.61444
6.51825
22.2167
9.12213
1.43419
0.914546
0.746861
0.650238
0.582981
0.542991
0.520133
0.506378
0.497528
0.491829
0.488584
0.487437
0.48831
0.491003
0.494363
1.0188
2.78799
2.8741
3.24052
1.83678
1.23578
0.949793
0.783267
0.675987
0.608365
0.565745
0.53776
0.518837
0.506145
0.498122
0.493817
0.492604
0.49413
0.49697
0.333263
1.43423
1.88255
1.86313
1.57285
1.23259
0.993638
0.831647
0.720395
0.645145
0.593794
0.557978
0.532811
0.515414
0.503953
0.497201
0.494372
0.494902
0.497246
0.185312
0.874151
1.2773
1.38933
1.29049
1.11262
0.949714
0.822061
0.726392
0.656003
0.604274
0.566226
0.538492
0.518748
0.505337
0.497063
0.493124
0.492895
0.494804
0.131799
0.60416
0.924224
1.06237
1.05221
0.967631
0.869137
0.780158
0.70601
0.646439
0.599591
0.563412
0.536068
0.516024
0.502041
0.49314
0.488621
0.487896
0.489447
0.0943943
0.434701
0.685255
0.820325
0.854617
0.828615
0.778153
0.722197
0.669102
0.622382
0.583167
0.551398
0.526492
0.507694
0.494251
0.485485
0.480861
0.479885
0.48116
0.0631792
0.31712
0.516453
0.641708
0.698407
0.707135
0.688923
0.658062
0.62314
0.589078
0.558437
0.532333
0.51107
0.494539
0.482435
0.47438
0.470029
0.469007
0.470081
0.0408
0.237481
0.399218
0.512189
0.577143
0.604391
0.606454
0.593663
0.573431
0.55067
0.528387
0.508275
0.491192
0.477489
0.467217
0.460257
0.456445
0.455532
0.456463
0.0263389
0.183331
0.316647
0.416599
0.482026
0.518155
0.532519
0.532337
0.523456
0.510164
0.495387
0.481008
0.468163
0.457486
0.449276
0.443619
0.440505
0.439802
0.440634
0.0172061
0.145164
0.256383
0.344003
0.406264
0.44588
0.4674
0.475748
0.475313
0.4696
0.461212
0.451976
0.443112
0.435394
0.429274
0.424985
0.42264
0.422201
0.422961
0.011371
0.117245
0.210915
0.287494
0.345173
0.385277
0.410622
0.424511
0.430148
0.430287
0.427118
0.422281
0.416957
0.411955
0.407809
0.404848
0.40327
0.403114
0.403819
0.0076637
0.0962607
0.175784
0.242699
0.295367
0.334347
0.361363
0.378644
0.388488
0.392997
0.39394
0.392719
0.390402
0.387775
0.385396
0.383648
0.382788
0.382903
0.383565
0.00540462
0.0801974
0.148158
0.206684
0.254372
0.29137
0.318703
0.337859
0.350477
0.358125
0.362188
0.363823
0.363959
0.363321
0.362457
0.36177
0.361544
0.3619
0.362523
0.00413859
0.0677225
0.126121
0.17739
0.220348
0.254936
0.281738
0.301717
0.31602
0.3258
0.332123
0.33592
0.337977
0.338942
0.339328
0.339531
0.339841
0.340399
0.340985
0.00356173
0.0579268
0.108342
0.153332
0.191912
0.223914
0.249642
0.269702
0.284869
0.295974
0.303833
0.309185
0.312682
0.314887
0.316266
0.317187
0.317932
0.318647
0.319196
0.00348632
0.0501831
0.0938716
0.133417
0.167989
0.197367
0.221676
0.241276
0.256681
0.268483
0.277287
0.283684
0.288204
0.291329
0.293464
0.294941
0.296019
0.296849
0.29736
0.00377888
0.0440305
0.0819993
0.116793
0.147705
0.174491
0.197163
0.215918
0.231091
0.243097
0.252385
0.259415
0.264605
0.268375
0.271059
0.27294
0.274263
0.275167
0.275636
0.00430746
0.0390926
0.07215
0.102763
0.130324
0.154585
0.175493
0.193142
0.207741
0.219579
0.228989
0.23632
0.241911
0.24609
0.249147
0.251292
0.252779
0.25372
0.254144
0.00493189
0.0350427
0.06384
0.0907408
0.115223
0.137051
0.156136
0.17251
0.186299
0.197703
0.206961
0.214338
0.220096
0.224492
0.227757
0.230086
0.231656
0.232594
0.232958
0.00552624
0.0316036
0.0566666
0.0802438
0.101891
0.121392
0.138648
0.153654
0.166481
0.177262
0.186167
0.193391
0.199133
0.203588
0.206938
0.209342
0.21094
0.211848
0.212143
0.0060031
0.0285586
0.0503128
0.0708915
0.0899222
0.107216
0.122676
0.136273
0.148044
0.158074
0.166479
0.173399
0.178978
0.183362
0.186689
0.189083
0.190655
0.191513
0.191736
0.00632023
0.0257556
0.0445455
0.0624008
0.0790138
0.0942239
0.10794
0.120123
0.130786
0.139977
0.147775
0.154273
0.159574
0.163779
0.166991
0.169305
0.170808
0.171598
0.171753
0.00646881
0.0230966
0.0392021
0.0545666
0.0689388
0.082184
0.09422
0.105005
0.114532
0.122828
0.129939
0.135925
0.140852
0.144792
0.147814
0.149991
0.151391
0.1521
0.152194
0.00645272
0.0205177
0.0341674
0.0472373
0.0595233
0.0709137
0.081336
0.0907466
0.0991296
0.106492
0.112857
0.118259
0.122739
0.126341
0.129115
0.131112
0.132383
0.133003
0.133044
0.00627059
0.0179692
0.0293512
0.0402919
0.0506257
0.0602604
0.0691323
0.0771984
0.0844357
0.0908386
0.0964141
0.101178
0.105153
0.108365
0.110845
0.11263
0.113755
0.114283
0.114279
0.00590809
0.0154031
0.0246745
0.0336261
0.0421235
0.0500902
0.0574703
0.064222
0.0703186
0.0757464
0.0805017
0.0845886
0.0880162
0.0907983
0.0929535
0.0945041
0.0954732
0.0959087
0.0958697
0.00534159
0.0127724
0.0200677
0.0271507
0.0339119
0.0402875
0.0462283
0.0516951
0.0566598
0.0611046
0.06502
0.0684027
0.0712542
0.0735797
0.0753885
0.0766922
0.077501
0.0778462
0.0777822
0.00454673
0.0100346
0.0154697
0.0207879
0.0258991
0.0307502
0.0352983
0.039508
0.0433524
0.0468131
0.0498783
0.0525411
0.0547987
0.0566512
0.0581014
0.0591525
0.0598021
0.060062
0.0599857
0.00349695
0.00712537
0.010783
0.0144132
0.0179406
0.0213202
0.0245154
0.0274953
0.0302362
0.0327209
0.0349378
0.0368793
0.0385408
0.0399198
0.0410153
0.0418244
0.0423324
0.042524
0.0424541
0.00215924
0.00393548
0.00583478
0.00780615
0.00978359
0.0117263
0.0136012
0.0153809
0.0170442
0.0185757
0.0199645
0.0212034
0.0222879
0.0232151
0.0239833
0.0245884
0.0250087
0.025192
0.0251849
0.000650436
0.00077487
0.00109003
0.00153282
0.00205796
0.00263502
0.00323894
0.00384902
0.00444894
0.00502629
0.0055719
0.00607917
0.00654358
0.00696229
0.00733394
0.0076573
0.0079194
0.00807135
0.00811201
)
;

boundaryField
{
    leftWall
    {
        type            fixedFluxPressure;
        gradient        uniform 0;
        value           nonuniform List<scalar> 
50
(
2244.66
2242.29
2239.42
2234.26
2227.58
2219.35
2209.55
2198.22
2178.13
2144.4
2105.13
2061.44
2014.48
1965.4
1915.48
1865.2
1810.71
1630.41
441.91
-0.940495
-0.621359
-0.62901
-0.618549
-0.61725
-0.610292
-0.592684
-0.566497
-0.534319
-0.498882
-0.462509
-0.426844
-0.392923
-0.361323
-0.332259
-0.305653
-0.281219
-0.258588
-0.237413
-0.217432
-0.198458
-0.180352
-0.163011
-0.146338
-0.130148
-0.114136
-0.0981626
-0.0826331
-0.0679547
-0.0507808
-0.0201651
)
;
    }
    rightWall
    {
        type            fixedFluxPressure;
        gradient        uniform 0;
        value           nonuniform List<scalar> 
50
(
0.486812
0.485848
0.484585
0.483084
0.481371
0.479503
0.477536
0.475532
0.472494
0.468952
0.466232
0.464696
0.464694
0.466146
0.469151
0.473524
0.478857
0.484565
0.489957
0.494363
0.49697
0.497246
0.494804
0.489447
0.48116
0.470081
0.456463
0.440634
0.422961
0.403819
0.383565
0.362523
0.340985
0.319196
0.29736
0.275636
0.254144
0.232958
0.212143
0.191736
0.171753
0.152194
0.133044
0.114279
0.0958697
0.0777822
0.0599857
0.0424541
0.0251849
0.00811201
)
;
    }
    lowerWall
    {
        type            fixedFluxPressure;
        gradient        uniform 0;
        value           nonuniform List<scalar> 
62
(
2244.66
2257.33
2273.76
2289.69
2302.59
2312.24
2319.02
2322.97
2323.89
2321.6
2316.19
2308.3
2299.64
2293.55
2295.84
2315.92
2368.88
2470.92
2638.64
2869.32
3124.39
3304.87
3405.62
3405.62
3435.52
3497.56
3535.07
3521.49
3403.86
3126.04
2634.67
245.53
116.715
-1.4099
0.780685
1.17968
1.1919
1.20329
1.21294
1.21831
1.21322
1.1849
1.10618
1.17968
1.10502
1.0179
0.925834
0.839865
0.764304
0.701224
0.650201
0.609822
0.578524
0.554641
0.536594
0.522996
0.512718
0.504797
0.498588
0.493673
0.489659
0.486812
)
;
    }
    atmosphere
    {
        type            totalPressure;
        rho             rho;
        psi             none;
        gamma           1;
        p0              uniform 0;
        value           nonuniform List<scalar> 
46
(
-0.0141366
-0.0319104
-0.0288203
-0.0264607
-0.0244357
-0.0224976
-0.0205337
-0.0184984
-0.0163898
-0.0142354
-0.0120797
-0.00997593
-0.00797781
-0.0061348
-0.00448829
-0.00307017
-0.00190413
-0.00100949
-0.000404405
-9.45591e-05
0
0
0
0
0
0
0
0
0
0
0
0
0
0
0
0
0
0
0
0
0
0
0
0
0
0
)
;
    }
    defaultFaces
    {
        type            empty;
    }
}


// ************************************************************************* //
