/*--------------------------------*- C++ -*----------------------------------*\
| =========                 |                                                 |
| \\      /  F ield         | OpenFOAM: The Open Source CFD Toolbox           |
|  \\    /   O peration     | Version:  v2012                                 |
|   \\  /    A nd           | Website:  www.openfoam.com                      |
|    \\/     M anipulation  |                                                 |
\*---------------------------------------------------------------------------*/
FoamFile
{
    version     2.0;
    format      ascii;
    class       surfaceScalarField;
    location    "0.2";
    object      phi;
}
// * * * * * * * * * * * * * * * * * * * * * * * * * * * * * * * * * * * * * //

dimensions      [0 3 -1 0 0 0 0];
oriented        oriented;


internalField   nonuniform List<scalar> 
4432
(
-1.5213e-06
1.5213e-06
2.10627e-06
-3.62757e-06
7.93394e-06
-5.82768e-06
1.42839e-05
-6.34996e-06
2.06951e-05
-6.41119e-06
2.71179e-05
-6.42283e-06
3.35984e-05
-6.48052e-06
4.01834e-05
-6.58498e-06
4.68975e-05
-6.71405e-06
5.37357e-05
-6.8382e-06
6.06537e-05
-6.91802e-06
6.75528e-05
-6.89909e-06
7.42585e-05
-6.70576e-06
8.04912e-05
-6.23264e-06
8.58173e-05
-5.32613e-06
8.95474e-05
-3.73008e-06
9.04038e-05
-8.56445e-07
8.5994e-05
4.40981e-06
7.34385e-05
1.25555e-05
5.07044e-05
2.27341e-05
2.01567e-05
3.05477e-05
-8.35619e-06
2.85129e-05
-8.35619e-06
1.23458e-06
2.86713e-07
5.71544e-06
-8.10843e-06
1.14813e-05
-1.15935e-05
1.76315e-05
-1.25001e-05
2.38885e-05
-1.26682e-05
3.02148e-05
-1.27491e-05
3.66411e-05
-1.29068e-05
4.32019e-05
-1.31458e-05
4.99125e-05
-1.34246e-05
5.67588e-05
-1.36845e-05
6.36874e-05
-1.38467e-05
7.05922e-05
-1.38038e-05
7.72944e-05
-1.3408e-05
8.35179e-05
-1.24561e-05
8.88556e-05
-1.06639e-05
9.27418e-05
-7.61625e-06
9.45885e-05
-2.70318e-06
9.38042e-05
5.19412e-06
8.88248e-05
1.75349e-05
7.6362e-05
3.51969e-05
5.20265e-05
5.48833e-05
2.07396e-05
5.97998e-05
1.23834e-05
3.02682e-06
-2.74011e-06
8.10851e-06
-1.31901e-05
1.38937e-05
-1.73787e-05
1.99055e-05
-1.8512e-05
2.60081e-05
-1.87708e-05
3.2201e-05
-1.89421e-05
3.85183e-05
-1.92241e-05
4.49891e-05
-1.96166e-05
5.16227e-05
-2.00582e-05
5.83997e-05
-2.04614e-05
6.52626e-05
-2.07096e-05
7.21032e-05
-2.06444e-05
7.87451e-05
-2.00499e-05
8.49231e-05
-1.86341e-05
9.02581e-05
-1.59988e-05
9.42315e-05
-1.15897e-05
9.61619e-05
-4.63353e-06
9.53335e-05
6.02248e-06
9.09432e-05
2.19252e-05
8.17505e-05
4.43896e-05
6.43089e-05
7.23249e-05
3.5793e-05
8.83157e-05
4.81763e-05
4.069e-06
-6.80911e-06
9.75423e-06
-1.88754e-05
1.56964e-05
-2.33209e-05
2.16661e-05
-2.44816e-05
2.76658e-05
-2.47705e-05
3.37497e-05
-2.5026e-05
3.99677e-05
-2.54421e-05
4.63513e-05
-2.60003e-05
5.2909e-05
-2.66159e-05
5.96204e-05
-2.71728e-05
6.6428e-05
-2.75173e-05
7.32255e-05
-2.74419e-05
7.98423e-05
-2.66667e-05
8.60259e-05
-2.48177e-05
9.14213e-05
-2.13943e-05
9.55478e-05
-1.57161e-05
9.77679e-05
-6.85367e-06
9.73213e-05
6.46912e-06
9.33714e-05
2.58751e-05
8.49526e-05
5.28084e-05
6.98175e-05
8.746e-05
4.3121e-05
0.000115012
9.12973e-05
4.65314e-06
-1.14622e-05
1.08469e-05
-2.50691e-05
1.70008e-05
-2.94748e-05
2.29964e-05
-3.04772e-05
2.89434e-05
-3.07175e-05
3.49501e-05
-3.10327e-05
4.10881e-05
-3.15801e-05
4.73969e-05
-3.23091e-05
5.38888e-05
-3.31078e-05
6.05465e-05
-3.38305e-05
6.73163e-05
-3.42871e-05
7.4097e-05
-3.42225e-05
8.07265e-05
-3.32962e-05
8.69667e-05
-3.10579e-05
9.24864e-05
-2.6914e-05
9.68406e-05
-2.00704e-05
9.94414e-05
-9.45449e-06
9.95541e-05
6.35647e-06
9.63059e-05
2.91233e-05
8.8566e-05
6.05483e-05
7.42663e-05
0.00010176
4.8269e-05
0.00014101
0.000139566
5.00281e-06
-1.64651e-05
1.15521e-05
-3.16183e-05
1.78888e-05
-3.58116e-05
2.39314e-05
-3.65198e-05
2.98551e-05
-3.66412e-05
3.58092e-05
-3.69868e-05
4.18845e-05
-3.76554e-05
4.81308e-05
-3.85553e-05
5.45672e-05
-3.95442e-05
6.11828e-05
-4.04461e-05
6.79304e-05
-4.10347e-05
7.4717e-05
-4.10091e-05
8.13909e-05
-3.99701e-05
8.77295e-05
-3.73965e-05
9.34253e-05
-3.26098e-05
9.80686e-05
-2.47136e-05
0.000101122
-1.25076e-05
0.000101902
5.57642e-06
9.95497e-05
3.14753e-05
9.28139e-05
6.72841e-05
7.94883e-05
0.000115085
5.4027e-05
0.000166471
0.000193593
5.23271e-06
-2.16978e-05
1.19823e-05
-3.83679e-05
1.84316e-05
-4.22609e-05
2.45056e-05
-4.25939e-05
3.04129e-05
-4.25485e-05
3.6326e-05
-4.28998e-05
4.23489e-05
-4.36784e-05
4.85405e-05
-4.47469e-05
5.4928e-05
-4.59317e-05
6.15091e-05
-4.70271e-05
6.82456e-05
-4.77713e-05
7.50544e-05
-4.78179e-05
8.17959e-05
-4.67115e-05
8.82632e-05
-4.38637e-05
9.41721e-05
-3.85188e-05
9.91486e-05
-2.96901e-05
0.000102709
-1.60682e-05
0.000104246
4.03967e-06
0.000102976
3.27452e-05
9.76677e-05
7.25925e-05
8.61793e-05
0.000126574
6.21894e-05
0.000190461
0.000255783
5.38059e-06
-2.70783e-05
1.22059e-05
-4.51933e-05
1.86855e-05
-4.87404e-05
2.47551e-05
-4.86635e-05
3.06359e-05
-4.84293e-05
3.6508e-05
-4.87719e-05
4.2481e-05
-4.96513e-05
4.86202e-05
-5.08861e-05
5.49613e-05
-5.22728e-05
6.15114e-05
-5.35772e-05
6.82433e-05
-5.45031e-05
7.50852e-05
-5.46599e-05
8.19102e-05
-5.35364e-05
8.85262e-05
-5.04798e-05
9.46711e-05
-4.46637e-05
0.000100006
-3.50245e-05
0.000104104
-2.01666e-05
0.000106452
1.69172e-06
0.000106412
3.2785e-05
0.000102973
7.60321e-05
9.44197e-05
0.000135127
7.2673e-05
0.000212207
0.000328456
-7.29784e-06
7.29784e-06
-1.63949e-05
9.09743e-06
-2.3027e-05
6.63207e-06
-2.5497e-05
2.46978e-06
-2.53478e-05
-1.49298e-07
-2.38225e-05
-1.52533e-06
-2.16226e-05
-2.19976e-06
-1.91425e-05
-2.48028e-06
-1.66327e-05
-2.5099e-06
-1.42382e-05
-2.39429e-06
-1.2021e-05
-2.21721e-06
-1.00417e-05
-1.97916e-06
-8.30397e-06
-1.73761e-06
-6.80599e-06
-1.4979e-06
-5.52318e-06
-1.28309e-06
-4.3927e-06
-1.13022e-06
-3.27566e-06
-1.1168e-06
-1.9001e-06
-1.37606e-06
-1.89966e-06
-1.18344e-05
1.91323e-05
-2.04995e-05
1.77626e-05
-2.52673e-05
1.13997e-05
-2.66535e-05
3.85582e-06
-2.62077e-05
-5.95058e-07
-2.45774e-05
-3.15584e-06
-2.22854e-05
-4.49166e-06
-1.97008e-05
-5.06484e-06
-1.70781e-05
-5.13263e-06
-1.4575e-05
-4.8971e-06
-1.22839e-05
-4.50845e-06
-1.02336e-05
-4.02935e-06
-8.43389e-06
-3.53751e-06
-6.86243e-06
-3.06888e-06
-5.48089e-06
-2.66466e-06
-4.22568e-06
-2.38565e-06
-3.00124e-06
-2.34063e-06
-1.66234e-06
-2.71561e-06
-3.56183e-06
-1.32454e-05
3.23777e-05
-2.14075e-05
2.59247e-05
-2.58287e-05
1.58208e-05
-2.7145e-05
5.17205e-06
-2.6585e-05
-1.15483e-06
-2.48684e-05
-4.87259e-06
-2.25085e-05
-6.85157e-06
-1.98621e-05
-7.71122e-06
-1.71818e-05
-7.8134e-06
-1.46324e-05
-7.44644e-06
-1.2306e-05
-6.83502e-06
-1.02316e-05
-6.10313e-06
-8.40864e-06
-5.36056e-06
-6.80743e-06
-4.67006e-06
-5.38252e-06
-4.08967e-06
-4.07296e-06
-3.69555e-06
-2.80625e-06
-3.60669e-06
-1.48951e-06
-4.03305e-06
-5.05121e-06
-1.47666e-05
4.71443e-05
-2.28469e-05
3.4005e-05
-2.68838e-05
1.98577e-05
-2.78793e-05
6.16746e-06
-2.70465e-05
-1.98743e-06
-2.51619e-05
-6.75724e-06
-2.26906e-05
-9.32318e-06
-1.99604e-05
-1.04413e-05
-1.72118e-05
-1.05621e-05
-1.46101e-05
-1.00476e-05
-1.22473e-05
-9.19789e-06
-1.01502e-05
-8.20023e-06
-8.31112e-06
-7.20022e-06
-6.69387e-06
-6.28704e-06
-5.24848e-06
-5.5346e-06
-3.91665e-06
-5.02764e-06
-2.63741e-06
-4.88557e-06
-1.34747e-06
-5.32345e-06
-6.39857e-06
-1.72561e-05
6.44004e-05
-2.5197e-05
4.19458e-05
-2.85099e-05
2.31707e-05
-2.89218e-05
6.57951e-06
-2.76654e-05
-3.24385e-06
-2.55208e-05
-8.90182e-06
-2.28867e-05
-1.19572e-05
-2.00448e-05
-1.32829e-05
-1.72113e-05
-1.33959e-05
-1.45453e-05
-1.27135e-05
-1.21384e-05
-1.16049e-05
-1.00151e-05
-1.03232e-05
-8.1609e-06
-9.05439e-06
-6.53433e-06
-7.91349e-06
-5.08202e-06
-6.98691e-06
-3.74778e-06
-6.36234e-06
-2.47893e-06
-6.15409e-06
-1.2318e-06
-6.5708e-06
-7.63039e-06
-2.11175e-05
8.55179e-05
-2.85884e-05
4.94168e-05
-3.07278e-05
2.53101e-05
-3.02884e-05
6.1402e-06
-2.84486e-05
-5.08366e-06
-2.59509e-05
-1.13995e-05
-2.31048e-05
-1.48034e-05
-2.01267e-05
-1.62611e-05
-1.71958e-05
-1.63267e-05
-1.44574e-05
-1.54517e-05
-1.20001e-05
-1.40622e-05
-9.84652e-06
-1.24768e-05
-7.9767e-06
-1.09246e-05
-6.34412e-06
-9.54623e-06
-4.89278e-06
-8.43812e-06
-3.56836e-06
-7.6871e-06
-2.3255e-06
-7.39679e-06
-1.13307e-06
-7.76341e-06
-8.76359e-06
-2.68499e-05
0.000112368
-3.30474e-05
5.56144e-05
-3.34489e-05
2.57119e-05
-3.19157e-05
4.60703e-06
-2.9352e-05
-7.6475e-06
-2.64172e-05
-1.43344e-05
-2.33161e-05
-1.79044e-05
-2.01843e-05
-1.93928e-05
-1.71523e-05
-1.93586e-05
-1.43422e-05
-1.82619e-05
-1.18352e-05
-1.65692e-05
-9.65194e-06
-1.466e-05
-7.76803e-06
-1.28086e-05
-6.13289e-06
-1.11814e-05
-4.68843e-06
-9.88227e-06
-3.38215e-06
-8.99353e-06
-2.17492e-06
-8.60387e-06
-1.04359e-06
-8.89498e-06
-9.80717e-06
-3.36912e-05
0.000146059
-3.79624e-05
5.98854e-05
-3.63663e-05
2.41159e-05
-3.36145e-05
1.85518e-06
-3.02696e-05
-1.09923e-05
-2.68423e-05
-1.77618e-05
-2.34543e-05
-2.12924e-05
-2.01592e-05
-2.26879e-05
-1.70308e-05
-2.2487e-05
-1.41596e-05
-2.11331e-05
-1.16137e-05
-1.91151e-05
-9.40963e-06
-1.6864e-05
-7.51971e-06
-1.46986e-05
-5.89046e-06
-1.28108e-05
-4.46257e-06
-1.131e-05
-3.18486e-06
-1.02715e-05
-2.02164e-06
-9.76716e-06
-9.57752e-07
-9.95925e-06
-1.0765e-05
1.14979e-05
-3.85762e-05
2.61157e-05
-5.98111e-05
3.97032e-05
-6.23279e-05
5.24289e-05
-6.13891e-05
6.47948e-05
-6.07952e-05
7.71384e-05
-6.11155e-05
8.96833e-05
-6.21963e-05
0.000102582
-6.37845e-05
0.000115934
-6.56256e-05
0.000129791
-6.74339e-05
0.000144133
-6.88452e-05
0.000158849
-6.93761e-05
0.000173709
-6.83957e-05
0.000188344
-6.51152e-05
0.000202254
-5.85737e-05
0.000214818
-4.75888e-05
0.000225324
-3.06718e-05
0.000233003
-5.98784e-06
0.00023711
2.86784e-05
0.000236947
7.61949e-05
0.000231868
0.000140205
0.000224153
0.000219922
0.000326639
0.00022597
1.16029e-05
-5.01791e-05
2.549e-05
-7.36982e-05
3.83296e-05
-7.51676e-05
5.04752e-05
-7.35347e-05
6.24138e-05
-7.27337e-05
7.4423e-05
-7.31247e-05
8.66849e-05
-7.44582e-05
9.93468e-05
-7.64464e-05
0.000112534
-7.88124e-05
0.000126338
-8.12387e-05
0.000140797
-8.33039e-05
0.00015585
-8.44293e-05
0.000171301
-8.38468e-05
0.000186795
-8.06084e-05
0.000201837
-7.36165e-05
0.000215857
-6.16087e-05
0.000228278
-4.30923e-05
0.000238616
-1.63262e-05
0.000246563
2.07313e-05
0.0002522
7.05583e-05
0.000257067
0.000135339
0.000266106
0.000210882
0.000317614
0.000275132
1.15513e-05
-6.17304e-05
2.43215e-05
-8.64684e-05
3.60379e-05
-8.68841e-05
4.73305e-05
-8.48273e-05
5.86239e-05
-8.40271e-05
7.01135e-05
-8.46143e-05
8.19338e-05
-8.62786e-05
9.42209e-05
-8.87334e-05
0.000107118
-9.17099e-05
0.000120761
-9.48809e-05
0.000135236
-9.77798e-05
0.00015053
-9.97223e-05
0.000166438
-9.97553e-05
0.000182532
-9.67022e-05
0.000198193
-8.92778e-05
0.000212711
-7.61262e-05
0.000225368
-5.57493e-05
0.000235482
-2.6441e-05
0.000242617
1.35963e-05
0.000246169
6.70064e-05
0.000247484
0.000134024
0.000256909
0.000201458
0.000303107
0.000271416
1.13207e-05
-7.30511e-05
2.26918e-05
-9.78395e-05
3.30863e-05
-9.72785e-05
4.3361e-05
-9.5102e-05
5.38394e-05
-9.45055e-05
6.4626e-05
-9.54009e-05
7.58087e-05
-9.74613e-05
8.75104e-05
-0.000100435
9.9889e-05
-0.000104088
0.000113117
-0.000108109
0.000127339
-0.000112002
0.000142575
-0.000114958
0.000158564
-0.000115744
0.000174669
-0.000112808
0.00018995
-0.000104558
0.000203322
-8.94984e-05
0.000213671
-6.60984e-05
0.000219838
-3.26084e-05
0.000220853
1.25816e-05
0.000218004
6.98557e-05
0.000216402
0.000135625
0.000228633
0.000189228
0.000285579
0.00024616
1.08847e-05
-8.39358e-05
2.06293e-05
-0.000107584
2.96318e-05
-0.000106281
3.8831e-05
-0.000104301
4.8398e-05
-0.000104072
5.8343e-05
-0.000105346
6.87085e-05
-0.000107827
7.95979e-05
-0.000111325
9.11723e-05
-0.000115663
0.000103634
-0.000120571
0.000117187
-0.000125555
0.000131897
-0.000129668
0.000147377
-0.000131223
0.000162594
-0.000128025
0.000176112
-0.000118077
0.000186594
-9.99806e-05
0.000192762
-7.2266e-05
0.000192812
-3.26579e-05
0.000183183
2.22102e-05
0.00016876
8.42785e-05
0.000172098
0.000132287
0.000189567
0.000171759
0.000258882
0.000216264
1.01104e-05
-9.40461e-05
1.80981e-05
-0.000115572
2.57888e-05
-0.000113972
3.39705e-05
-0.000112483
4.26226e-05
-0.000112725
5.16666e-05
-0.00011439
6.10984e-05
-0.000117258
7.09878e-05
-0.000121214
8.14736e-05
-0.000126149
9.27607e-05
-0.000131858
0.000105109
-0.000137903
0.00011866
-0.00014322
0.000132824
-0.000145387
0.000145999
-0.0001412
0.000156484
-0.000128562
0.00016324
-0.000106736
0.000165786
-7.48123e-05
0.000151155
-1.80266e-05
0.000147259
2.61059e-05
0.000151831
7.97068e-05
0.000152177
0.000131941
0.000154846
0.00016909
0.000227352
0.000186376
8.66825e-06
-0.000102714
1.50622e-05
-0.000121966
2.17284e-05
-0.000120638
2.90733e-05
-0.000119828
3.69144e-05
-0.000120566
4.51077e-05
-0.000122583
5.36025e-05
-0.000125753
6.24137e-05
-0.000130025
7.1612e-05
-0.000135347
8.13356e-05
-0.000141582
9.18603e-05
-0.000148428
0.000103476
-0.000154835
0.00011537
-0.000157281
0.000125575
-0.000151405
0.000132561
-0.000135548
0.000136329
-0.000110503
0.000137741
-7.62249e-05
0.000145875
-2.61599e-05
0.000144547
2.74337e-05
0.000141898
8.23551e-05
0.000138871
0.000134969
0.00013294
0.000175021
0.000201949
0.000158343
6.3091e-06
-0.000109023
1.17794e-05
-0.000127436
1.78472e-05
-0.000126706
2.4595e-05
-0.000126576
3.18094e-05
-0.00012778
3.93135e-05
-0.000130087
4.70121e-05
-0.000133452
5.48473e-05
-0.00013786
6.27755e-05
-0.000143275
7.07517e-05
-0.000149558
7.89174e-05
-0.000156593
8.78425e-05
-0.000163761
9.68122e-05
-0.000166251
0.000103644
-0.000158237
0.000108102
-0.000140006
0.000109592
-0.000111992
0.000111246
-7.78792e-05
0.000110658
-2.55719e-05
0.000108866
2.92262e-05
0.000109718
8.15031e-05
0.000114531
0.000130156
0.000119151
0.000170401
0.000189806
0.000131294
3.99572e-06
-0.000113019
9.20881e-06
-0.000132649
1.4795e-05
-0.000132292
2.10733e-05
-0.000132854
2.78472e-05
-0.000134554
3.48821e-05
-0.000137122
4.2037e-05
-0.000140607
4.91981e-05
-0.000145022
5.62385e-05
-0.000150315
6.28865e-05
-0.000156206
6.87344e-05
-0.000162441
7.46302e-05
-0.000169656
8.04349e-05
-0.000172055
8.46087e-05
-0.000162411
8.56726e-05
-0.00014107
8.65428e-05
-0.000112863
7.59643e-05
-6.73007e-05
6.56457e-05
-1.52528e-05
6.05274e-05
3.43445e-05
6.23646e-05
7.96661e-05
7.19806e-05
0.00012054
8.81956e-05
0.000154186
0.000174385
0.000103617
6.29347e-06
-0.000119313
8.951e-06
-0.000135307
1.31153e-05
-0.000136456
1.88477e-05
-0.000138586
2.53186e-05
-0.000141025
3.20941e-05
-0.000143898
3.89896e-05
-0.000147502
4.58764e-05
-0.000151908
5.26749e-05
-0.000157114
5.91989e-05
-0.00016273
6.42836e-05
-0.000167526
6.78511e-05
-0.000173224
7.05516e-05
-0.000174756
6.89938e-05
-0.000160853
6.69526e-05
-0.000139029
5.18848e-05
-9.77948e-05
3.35003e-05
-4.89167e-05
1.93476e-05
-1.0998e-06
1.16142e-05
4.20779e-05
1.15621e-05
7.97184e-05
2.06557e-05
0.000111447
3.96065e-05
0.000135236
0.00015032
6.36712e-05
2.29718e-05
-0.000142284
1.20819e-05
-0.000124417
1.32039e-05
-0.000137578
1.83211e-05
-0.000143704
2.4699e-05
-0.000147403
3.16461e-05
-0.000150845
3.90164e-05
-0.000154872
4.67697e-05
-0.000159662
5.50831e-05
-0.000165427
6.35907e-05
-0.000171238
6.95634e-05
-0.000173499
6.89257e-05
-0.000172586
6.38926e-05
-0.000169723
5.56446e-05
-0.000152605
3.56177e-05
-0.000119002
1.28882e-05
-7.50649e-05
-7.00224e-06
-2.90263e-05
-2.20105e-05
1.39087e-05
-3.12553e-05
5.13229e-05
-3.39003e-05
8.23634e-05
-2.87386e-05
0.000106285
-1.48427e-05
0.00012134
0.000129478
6.00009e-06
4.35341e-05
-0.000185819
2.1703e-05
-0.000102586
1.68173e-05
-0.000132693
2.11958e-05
-0.000148082
2.7796e-05
-0.000154003
3.53314e-05
-0.00015838
4.33724e-05
-0.000162913
5.12822e-05
-0.000167571
5.7264e-05
-0.000171409
6.24866e-05
-0.00017646
6.48957e-05
-0.000175908
6.11967e-05
-0.000168887
4.69549e-05
-0.00015548
2.50516e-05
-0.000130702
6.16501e-07
-9.4567e-05
-2.20067e-05
-5.24416e-05
-4.07443e-05
-1.02886e-05
-5.48336e-05
2.79981e-05
-6.40434e-05
6.05326e-05
-6.82959e-05
8.66161e-05
-6.76169e-05
0.000105607
-6.28052e-05
0.000116528
0.000121932
-5.52593e-05
2.2179e-06
-0.000188037
1.64652e-05
-0.000116833
2.13165e-05
-0.000137544
2.64183e-05
-0.000153184
3.23759e-05
-0.000159961
3.83702e-05
-0.000164375
4.38264e-05
-0.00016837
4.81104e-05
-0.000171856
5.08006e-05
-0.0001741
4.86714e-05
-0.000174331
4.20555e-05
-0.000169292
3.04648e-05
-0.000157296
1.27034e-05
-0.000137719
-9.06032e-06
-0.000108938
-3.11621e-05
-7.24654e-05
-5.08113e-05
-3.27922e-05
-6.6606e-05
5.50618e-06
-7.81608e-05
3.9553e-05
-8.5646e-05
6.80178e-05
-8.95305e-05
9.05007e-05
-9.07331e-05
0.000106809
-9.12575e-05
0.000117053
0.000124108
-9.34338e-05
-1.51549e-05
-0.000172882
8.4221e-06
-0.00014041
1.96299e-05
-0.000148752
2.42464e-05
-0.0001578
2.74269e-05
-0.000163141
2.99126e-05
-0.000166861
3.13367e-05
-0.000169794
3.1098e-05
-0.000171617
2.84172e-05
-0.000171419
2.19592e-05
-0.000167873
1.16111e-05
-0.000158944
-2.43551e-06
-0.00014325
-1.99023e-05
-0.000120252
-3.89741e-05
-8.98662e-05
-5.73005e-05
-5.4139e-05
-7.28939e-05
-1.71986e-05
-8.47943e-05
1.74067e-05
-9.28417e-05
4.76004e-05
-9.73728e-05
7.25489e-05
-9.90245e-05
9.21525e-05
-9.88391e-05
0.000106624
-9.85334e-05
0.000116747
0.000125282
-9.97073e-05
-7.03867e-06
-0.000165843
6.77546e-06
-0.000154224
1.40754e-05
-0.000156052
1.62515e-05
-0.000159977
1.65014e-05
-0.000163391
1.57059e-05
-0.000166065
1.36986e-05
-0.000167787
9.99777e-06
-0.000167916
4.0045e-06
-0.000165426
-4.876e-06
-0.000158993
-1.6683e-05
-0.000147137
-3.10148e-05
-0.000128918
-4.70273e-05
-0.000104239
-6.30887e-05
-7.38045e-05
-7.74109e-05
-3.98168e-05
-8.87267e-05
-5.88277e-06
-9.65245e-05
2.52044e-05
-0.000100846
5.19222e-05
-0.000102083
7.37857e-05
-0.000100837
9.09061e-05
-9.79235e-05
0.000103711
-9.43399e-05
0.000113164
0.000121522
-9.05796e-05
-1.94616e-06
-0.000163897
2.73027e-06
-0.000158901
5.17897e-06
-0.000158501
5e-06
-0.000159798
3.15711e-06
-0.000161548
5.71216e-08
-0.000162965
-4.37795e-06
-0.000163352
-1.04479e-05
-0.000161846
-1.84914e-05
-0.000157382
-2.87074e-05
-0.000148777
-4.08945e-05
-0.00013495
-5.44543e-05
-0.000115358
-6.84222e-05
-9.02714e-05
-8.13835e-05
-6.0843e-05
-9.19143e-05
-2.92862e-05
-9.92946e-05
1.49751e-06
-0.000103381
2.92906e-05
-0.000104382
5.29236e-05
-0.000102716
7.21188e-05
-9.89054e-05
8.70959e-05
-9.35447e-05
9.83505e-05
-8.71637e-05
0.000106783
0.000114114
-7.97556e-05
-2.71905e-06
-0.000161178
-2.80431e-06
-0.000158816
-3.83454e-06
-0.00015747
-6.22134e-06
-0.000157411
-9.88396e-06
-0.000157886
-1.47738e-05
-0.000158076
-2.09757e-05
-0.00015715
-2.86438e-05
-0.000154178
-3.78881e-05
-0.000148137
-4.86384e-05
-0.000138027
-6.05022e-05
-0.000123086
-7.2762e-05
-0.000103098
-8.44416e-05
-7.85921e-05
-9.43873e-05
-5.08974e-05
-0.000101615
-2.20586e-05
-0.000105741
5.62342e-06
-0.000106841
3.03902e-05
-0.000105241
5.13243e-05
-0.000101374
6.82516e-05
-9.57004e-05
8.14223e-05
-8.86701e-05
9.13202e-05
-8.06032e-05
9.8716e-05
0.000104914
-7.14031e-05
-4.71546e-06
-0.000156462
-8.00498e-06
-0.000155526
-1.15866e-05
-0.000153889
-1.59067e-05
-0.000153091
-2.11765e-05
-0.000152616
-2.75108e-05
-0.000151742
-3.49998e-05
-0.000149661
-4.36929e-05
-0.000145485
-5.35306e-05
-0.0001383
-6.42599e-05
-0.000127297
-7.53701e-05
-0.000111977
-8.61113e-05
-9.23563e-05
-9.5591e-05
-6.91124e-05
-0.000102923
-4.35657e-05
-0.000107481
-1.7501e-05
-0.000109106
7.24938e-06
-0.000108005
2.92887e-05
-0.000104563
4.78815e-05
-9.92093e-05
6.28983e-05
-9.23615e-05
7.45747e-05
-8.43901e-05
8.33489e-05
-7.55394e-05
8.98654e-05
9.51342e-05
-6.57599e-05
-6.54173e-06
-0.000149921
-1.21289e-05
-0.000149939
-1.76377e-05
-0.00014838
-2.35441e-05
-0.000147184
-3.01388e-05
-0.000146021
-3.75863e-05
-0.000144294
-4.59586e-05
-0.000141289
-5.52239e-05
-0.00013622
-6.52087e-05
-0.000128315
-7.55534e-05
-0.000116953
-8.56984e-05
-0.000101832
-9.49314e-05
-8.31234e-05
-0.000102495
-6.15486e-05
-0.000107738
-3.83233e-05
-0.000110283
-1.49553e-05
-0.000110123
7.08887e-06
-0.000107528
2.66934e-05
-0.000102901
4.3255e-05
-9.66629e-05
5.66599e-05
-8.91975e-05
6.71093e-05
-8.08333e-05
7.49848e-05
-7.17931e-05
8.08252e-05
8.54338e-05
-6.20927e-05
-7.89346e-06
-0.000142027
-1.50412e-05
-0.000142792
-2.19555e-05
-0.000141466
-2.90625e-05
-0.000140077
-3.66479e-05
-0.000138436
-4.4868e-05
-0.000136074
-5.37613e-05
-0.000132396
-6.32354e-05
-0.000126745
-7.30491e-05
-0.000118501
-8.27957e-05
-0.000107206
-9.1922e-05
-9.27051e-05
-9.97928e-05
-7.52527e-05
-0.000105794
-5.55474e-05
-0.00010946
-3.46572e-05
-0.000110582
-1.38335e-05
-0.000109238
5.74494e-06
-0.000105725
2.31805e-05
-0.00010044
3.79697e-05
-9.3783e-05
5.00027e-05
-8.61147e-05
5.9441e-05
-7.77388e-05
6.66087e-05
-6.88713e-05
7.19576e-05
7.61389e-05
-5.95764e-05
-8.70113e-06
-0.000133326
-1.68319e-05
-0.000134661
-2.46849e-05
-0.000133613
-3.26054e-05
-0.000132157
-4.08349e-05
-0.000130207
-4.94965e-05
-0.000127413
-5.85914e-05
-0.000123301
-6.79871e-05
-0.000117349
-7.74104e-05
-0.000109078
-8.64508e-05
-9.81663e-05
-9.4596e-05
-8.45596e-05
-0.000101302
-6.85468e-05
-0.000106084
-5.07656e-05
-0.000108614
-3.21268e-05
-0.00010879
-1.36576e-05
-0.000106736
3.69099e-06
-0.000102749
1.9193e-05
-9.72031e-05
3.24237e-05
-9.04751e-05
4.32746e-05
-8.29036e-05
5.18695e-05
-7.47732e-05
5.84783e-05
-6.62943e-05
6.34787e-05
6.74033e-05
-5.75588e-05
-9.03429e-06
-0.000124292
-1.76711e-05
-0.000126024
-2.60499e-05
-0.000125234
-3.4423e-05
-0.000123784
-4.2971e-05
-0.000121659
-5.17754e-05
-0.000118609
-6.08034e-05
-0.000114273
-6.9901e-05
-0.000108252
-7.87893e-05
-0.00010019
-8.70809e-05
-8.98746e-05
-9.43226e-05
-7.73179e-05
-0.00010006
-6.28096e-05
-0.000103915
-4.69103e-05
-0.00010566
-3.03819e-05
-0.000105256
-1.40618e-05
-0.000102846
1.28136e-06
-9.8712e-05
1.50585e-05
-9.31983e-05
2.691e-05
-8.66534e-05
3.67297e-05
-7.93926e-05
4.46087e-05
-7.16821e-05
5.07678e-05
-6.37236e-05
5.55201e-05
5.93014e-05
-5.56218e-05
-8.99228e-06
-0.0001153
-1.7749e-05
-0.000117267
-2.63025e-05
-0.000116681
-3.4813e-05
-0.000115273
-4.33966e-05
-0.000113075
-5.20921e-05
-0.000109914
-6.08405e-05
-0.000105524
-6.948e-05
-9.96124e-05
-7.77439e-05
-9.19266e-05
-8.5283e-05
-8.23352e-05
-9.17085e-05
-7.08923e-05
-9.66477e-05
-5.78705e-05
-9.98081e-05
-4.375e-05
-0.00010103
-2.91595e-05
-0.000100314
-1.47784e-05
-9.78039e-05
-1.22845e-06
-9.3757e-05
1.10114e-05
-8.84849e-05
2.16379e-05
-8.23045e-05
3.05492e-05
-7.55052e-05
3.78094e-05
-6.83333e-05
4.35958e-05
-6.09785e-05
4.81653e-05
5.18721e-05
-5.35494e-05
-8.66926e-06
-0.000106631
-1.72494e-05
-0.000108687
-2.56947e-05
-0.000108235
-3.40837e-05
-0.000106884
-4.24728e-05
-0.000104686
-5.08617e-05
-0.000101525
-5.91729e-05
-9.72126e-05
-6.72462e-05
-9.15394e-05
-7.48379e-05
-8.43351e-05
-8.16438e-05
-7.5529e-05
-8.73375e-05
-6.51986e-05
-9.16174e-05
-5.35907e-05
-9.42577e-05
-4.11097e-05
-9.51474e-05
-2.82698e-05
-9.43059e-05
-1.56199e-05
-9.1872e-05
-3.66246e-06
-8.80725e-05
7.2119e-06
-8.31848e-05
1.67501e-05
-7.74918e-05
2.48562e-05
-7.12551e-05
3.15727e-05
-6.46989e-05
3.70395e-05
-5.79982e-05
4.14644e-05
4.51335e-05
-5.12597e-05
-8.15328e-06
-9.84775e-05
-1.63415e-05
-0.000100499
-2.44628e-05
-0.000100114
-3.25302e-05
-9.88168e-05
-4.05492e-05
-9.66673e-05
-4.84867e-05
-9.35878e-05
-5.62538e-05
-8.94453e-05
-6.36972e-05
-8.40962e-05
-7.06011e-05
-7.74312e-05
-7.67072e-05
-6.94227e-05
-8.17464e-05
-6.01595e-05
-8.54773e-05
-4.98599e-05
-8.7726e-05
-3.88609e-05
-8.84154e-05
-2.75804e-05
-8.75747e-05
-1.64606e-05
-8.53302e-05
-5.90702e-06
-8.18793e-05
3.76106e-06
-7.74638e-05
1.23346e-05
-7.23324e-05
1.97249e-05
-6.67173e-05
2.59575e-05
-6.08189e-05
3.1141e-05
-5.4795e-05
3.54405e-05
3.90855e-05
-4.87471e-05
-7.52313e-06
-9.09543e-05
-1.51741e-05
-9.28483e-05
-2.28175e-05
-9.24704e-05
-3.04185e-05
-9.12158e-05
-3.7943e-05
-8.91432e-05
-4.53325e-05
-8.6198e-05
-5.24916e-05
-8.22863e-05
-5.92771e-05
-7.73107e-05
-6.55022e-05
-7.12059e-05
-7.09516e-05
-6.39733e-05
-7.54064e-05
-5.57047e-05
-7.86755e-05
-4.65907e-05
-8.06258e-05
-3.69105e-05
-8.12037e-05
-2.70023e-05
-8.04422e-05
-1.7222e-05
-7.84525e-05
-7.89675e-06
-7.54041e-05
7.12748e-07
-7.15039e-05
8.43431e-06
-6.69671e-05
1.51879e-05
-6.19959e-05
2.09863e-05
-5.67665e-05
2.59114e-05
-5.14185e-05
3.00925e-05
3.37125e-05
-4.60454e-05
-6.84091e-06
-8.41134e-05
-1.38699e-05
-8.58193e-05
-2.09374e-05
-8.54029e-05
-2.79771e-05
-8.4176e-05
-3.49273e-05
-8.21933e-05
-4.17125e-05
-7.94126e-05
-4.82342e-05
-7.57649e-05
-5.43612e-05
-7.11836e-05
-5.9934e-05
-6.5633e-05
-6.47753e-05
-5.9132e-05
-6.87094e-05
-5.17705e-05
-7.15864e-05
-4.37136e-05
-7.3305e-05
-3.51917e-05
-7.38284e-05
-2.64789e-05
-7.31892e-05
-1.78612e-05
-7.14835e-05
-9.6025e-06
-6.8855e-05
-1.9158e-06
-6.54775e-05
5.05677e-06
-6.15345e-05
1.12448e-05
-5.71994e-05
1.66512e-05
-5.26243e-05
2.13363e-05
-4.79312e-05
2.53995e-05
2.89852e-05
-4.3204e-05
-6.15221e-06
-7.79613e-05
-1.25246e-05
-7.94467e-05
-1.89656e-05
-7.89621e-05
-2.53921e-05
-7.77493e-05
-3.17257e-05
-7.58596e-05
-3.78821e-05
-7.32562e-05
-4.37629e-05
-6.98842e-05
-4.92498e-05
-6.56964e-05
-5.42078e-05
-6.06748e-05
-5.84921e-05
-5.48477e-05
-6.1963e-05
-4.82996e-05
-6.45037e-05
-4.11727e-05
-6.60378e-05
-3.36576e-05
-6.65401e-05
-2.59767e-05
-6.60411e-05
-1.83603e-05
-6.46222e-05
-1.10215e-05
-6.2404e-05
-4.13415e-06
-5.95302e-05
2.1828e-06
-5.61548e-05
7.86932e-06
-5.24246e-05
1.29211e-05
-4.84693e-05
1.7381e-05
-4.4394e-05
2.13242e-05
2.48638e-05
-4.02725e-05
-5.48894e-06
-7.24725e-05
-1.12074e-05
-7.37282e-05
-1.70092e-05
-7.31603e-05
-2.28054e-05
-7.1953e-05
-2.85106e-05
-7.01542e-05
-3.40378e-05
-6.77291e-05
-3.92926e-05
-6.46295e-05
-4.417e-05
-6.08187e-05
-4.85563e-05
-5.62884e-05
-5.23339e-05
-5.10701e-05
-5.53925e-05
-4.5241e-05
-5.76417e-05
-3.89234e-05
-5.90239e-05
-3.22755e-05
-5.95222e-05
-2.54785e-05
-5.91639e-05
-1.87186e-05
-5.80168e-05
-1.21686e-05
-5.61803e-05
-5.97081e-06
-5.37729e-05
-2.24766e-07
-5.09215e-05
5.01787e-06
-4.77491e-05
9.7486e-06
-4.43648e-05
1.39967e-05
-4.08585e-05
1.78178e-05
2.12993e-05
-3.72941e-05
-4.86904e-06
-6.76034e-05
-9.96117e-06
-6.86362e-05
-1.51395e-05
-6.7982e-05
-2.03156e-05
-6.67769e-05
-2.54037e-05
-6.5066e-05
-3.03195e-05
-6.28134e-05
-3.49757e-05
-5.99733e-05
-3.92811e-05
-5.65133e-05
-4.31405e-05
-5.2429e-05
-4.64589e-05
-4.77515e-05
-4.91496e-05
-4.25503e-05
-5.11429e-05
-3.69301e-05
-5.23951e-05
-3.10233e-05
-5.28952e-05
-2.49785e-05
-5.26666e-05
-1.89473e-05
-5.17649e-05
-1.30704e-05
-5.02711e-05
-7.46483e-06
-4.82819e-05
-2.21414e-06
-4.59007e-05
2.63659e-06
-4.32292e-05
7.07715e-06
-4.03588e-05
1.11263e-05
-3.73654e-05
1.48244e-05
1.82378e-05
-3.43038e-05
-4.29756e-06
-6.33058e-05
-8.80576e-06
-6.41281e-05
-1.33953e-05
-6.33926e-05
-1.79806e-05
-6.21916e-05
-2.24798e-05
-6.05667e-05
-2.68146e-05
-5.84785e-05
-3.09081e-05
-5.58797e-05
-3.46825e-05
-5.27389e-05
-3.80593e-05
-4.90522e-05
-4.09624e-05
-4.48483e-05
-4.33236e-05
-4.0189e-05
-4.50891e-05
-3.51646e-05
-4.62258e-05
-2.98866e-05
-4.67262e-05
-2.44781e-05
-4.66098e-05
-1.90637e-05
-4.59215e-05
-1.37589e-05
-4.47261e-05
-8.66034e-06
-4.31019e-05
-3.83841e-06
-4.11324e-05
6.67141e-07
-3.89012e-05
4.84595e-06
-3.64839e-05
8.70904e-06
-3.39445e-05
1.2285e-05
1.56233e-05
-3.133e-05
-3.76928e-06
-5.95365e-05
-7.74279e-06
-6.01547e-05
-1.1789e-05
-5.93465e-05
-1.58245e-05
-5.81562e-05
-1.97729e-05
-5.66182e-05
-2.35654e-05
-5.46859e-05
-2.71367e-05
-5.23084e-05
-3.04225e-05
-4.9453e-05
-3.33596e-05
-4.6115e-05
-3.58875e-05
-4.23203e-05
-3.79526e-05
-3.81238e-05
-3.95132e-05
-3.3604e-05
-4.05438e-05
-2.88559e-05
-4.10391e-05
-2.39828e-05
-4.10146e-05
-1.90882e-05
-4.05058e-05
-1.42678e-05
-3.95639e-05
-9.60225e-06
-3.82514e-05
-5.15086e-06
-3.66353e-05
-9.4896e-07
-3.47837e-05
2.99444e-06
-3.27593e-05
6.68474e-06
-3.06162e-05
1.01419e-05
1.34019e-05
-2.83947e-05
-3.27314e-06
-5.62634e-05
-6.76357e-06
-5.66644e-05
-1.03163e-05
-5.57938e-05
-1.3847e-05
-5.46255e-05
-1.72868e-05
-5.31782e-05
-2.05782e-05
-5.13944e-05
-2.36689e-05
-4.92176e-05
-2.65083e-05
-4.66135e-05
-2.90466e-05
-4.35766e-05
-3.12361e-05
-4.01307e-05
-3.30346e-05
-3.63253e-05
-3.44093e-05
-3.22292e-05
-3.53404e-05
-2.79247e-05
-3.58236e-05
-2.34996e-05
-3.58707e-05
-1.90411e-05
-3.55089e-05
-1.46297e-05
-3.47781e-05
-1.03331e-05
-3.3727e-05
-6.20186e-06
-3.241e-05
-2.26599e-06
-3.08808e-05
1.46533e-06
-2.91929e-05
4.9968e-06
-2.73921e-05
8.34121e-06
1.15239e-05
-2.55141e-05
-2.79679e-06
-5.34666e-05
-5.85711e-06
-5.36041e-05
-8.96566e-06
-5.26852e-05
-1.20344e-05
-5.15567e-05
-1.50051e-05
-5.02075e-05
-1.78344e-05
-4.85651e-05
-2.04843e-05
-4.65676e-05
-2.29173e-05
-4.41804e-05
-2.50949e-05
-4.1399e-05
-2.69796e-05
-3.8246e-05
-2.85379e-05
-3.4767e-05
-2.97435e-05
-3.10236e-05
-3.05804e-05
-2.70877e-05
-3.10447e-05
-2.30352e-05
-3.11449e-05
-1.89409e-05
-3.09013e-05
-1.48733e-05
-3.03441e-05
-1.08903e-05
-2.95106e-05
-7.0353e-06
-2.84431e-05
-3.33348e-06
-2.71858e-05
2.07976e-07
-2.57837e-05
3.5947e-06
-2.42776e-05
6.83513e-06
9.94548e-06
-2.26992e-05
-2.32833e-06
-5.11383e-05
-5.01729e-06
-5.09151e-05
-7.72743e-06
-4.9975e-05
-1.03685e-05
-4.89154e-05
-1.29014e-05
-4.76747e-05
-1.53015e-05
-4.6165e-05
-1.7546e-05
-4.4323e-05
-1.96088e-05
-4.21176e-05
-2.14605e-05
-3.95473e-05
-2.30709e-05
-3.66357e-05
-2.44124e-05
-3.34254e-05
-2.54636e-05
-2.99723e-05
-2.62111e-05
-2.63402e-05
-2.66509e-05
-2.25954e-05
-2.6789e-05
-1.88029e-05
-2.66397e-05
-1.50225e-05
-2.62252e-05
-1.13049e-05
-2.55729e-05
-7.68769e-06
-2.47145e-05
-4.19201e-06
-2.36855e-05
-8.21015e-07
-2.25261e-05
2.43524e-06
-2.1274e-05
5.58309e-06
8.62997e-06
-1.99583e-05
-1.86946e-06
-4.92688e-05
-4.25653e-06
-4.8528e-05
-6.60277e-06
-4.76288e-05
-8.83393e-06
-4.66841e-05
-1.0947e-05
-4.55617e-05
-1.29421e-05
-4.41699e-05
-1.48107e-05
-4.24542e-05
-1.65353e-05
-4.03931e-05
-1.80918e-05
-3.79909e-05
-1.94545e-05
-3.52731e-05
-2.05998e-05
-3.228e-05
-2.15093e-05
-2.90628e-05
-2.21715e-05
-2.5678e-05
-2.25827e-05
-2.21842e-05
-2.27466e-05
-1.8639e-05
-2.26736e-05
-1.50955e-05
-2.23787e-05
-1.15999e-05
-2.188e-05
-8.18643e-06
-2.11992e-05
-4.87295e-06
-2.03642e-05
-1.65607e-06
-1.94124e-05
1.48346e-06
-1.83822e-05
4.55299e-06
7.54867e-06
-1.73007e-05
-1.49614e-06
-4.77727e-05
-3.63414e-06
-4.639e-05
-5.61216e-06