/*--------------------------------*- C++ -*----------------------------------*\
| =========                 |                                                 |
| \\      /  F ield         | OpenFOAM: The Open Source CFD Toolbox           |
|  \\    /   O peration     | Version:  v2012                                 |
|   \\  /    A nd           | Website:  www.openfoam.com                      |
|    \\/     M anipulation  |                                                 |
\*---------------------------------------------------------------------------*/
FoamFile
{
    version     2.0;
    format      ascii;
    class       volScalarField;
    location    "0.65";
    object      alpha.water;
}
// * * * * * * * * * * * * * * * * * * * * * * * * * * * * * * * * * * * * * //

dimensions      [0 0 0 0 0 0 0];


internalField   nonuniform List<scalar> 
2268
(
1
1
1
1
1
1
1
1
1
1
1
1
1
1
1
1
1
1
0.999999
0.981615
0.947409
0.948763
0.991242
1
1
1
1
1
1
1
1
1
1
1
1
1
1
1
1
1
1
1
0.996896
0.961727
0.952123
0.996594
1
1
1
1
1
1
1
1
1
1
1
1
1
1
1
1
1
1
1
1
0.997076
0.951245
0.996571
1
1
1
1
1
1
1
1
1
1
1
1
1
1
1
1
1
1
1
1
0.999998
0.983753
0.998591
1
1
1
1
1
1
1
1
1
1
1
1
1
1
1
1
1
1
1
1
1
1
0.999803
1
1
1
1
1
1
1
1
1
1
1
1
1
1
1
1
1
1
1
1
1
1
0.999644
1
1
1
1
1
1
1
1
1
1
1
1
1
1
1
1
1
1
1
1
1
1
0.999539
1
0.995678
0.993427
0.997157
0.999964
1
1
1
1
1
1
1
1
1
1
1
1
1
1
1
1
1
0.99954
0.0418391
0.408457
0.952572
0.957461
0.960007
0.989517
0.994697
0.995418
0.995644
0.995655
0.996676
0.994549
0.979328
0.977427
0.977927
0.978355
0.968808
0.953657
0.931983
0.152634
0.570105
0.595373
0.208298
0.270516
0.59904
0.767583
0.875967
0.958808
0.993383
0.998044
0.998504
0.998619
0.998629
0.998694
0.998708
0.998663
0.998344
0.995308
0.461253
0.418418
0.0352981
0.000733158
0.000132281
4.23982e-05
0.000119064
0.0231476
0.276184
0.654295
0.890143
0.983943
0.998506
0.998659
0.998707
0.998662
0.99375
0.984666
0.98959
0.374206
0.379075
0.00667123
0.000131031
4.21587e-05
3.59467e-05
2.22102e-05
3.7813e-05
0.000113191
0.000908284
0.0777816
0.525151
0.896479
0.998252
0.998638
0.998381
0.99105
0.910872
0.897651
0.101247
0.0635345
0.0224527
0.00259005
0.000112394
1.76946e-05
2.54725e-05
2.22486e-05
2.40277e-05
9.00711e-05
0.000532642
0.00439789
0.269502
0.877464
0.998363
0.99831
0.998047
0.951687
0.885547
0.124201
0.119148
0.0984608
0.00833295
0.00096463
4.77003e-05
1.3367e-05
1.58121e-05
7.66166e-06
2.03169e-05
9.63322e-05
0.000638261
0.0119268
0.469199
0.998454
0.998332
0.998294
0.994011
0.88553
0.506722
0.811872
0.798979
0.329977
0.00780367
0.000907862
6.26587e-06
3.13118e-06
2.31913e-06
6.96829e-06
2.39316e-05
0.000118305
0.00110579
0.157055
0.904822
0.998305
0.998253
0.990087
0.885562
0.99558
0.999961
0.99822
0.836369
0.182289
0.00370738
0.000314449
-7.79357e-06
1.29268e-06
1.69491e-06
4.83928e-06
3.21574e-05
0.000305317
0.0450529
0.700158
0.998253
0.9981
0.994933
0.885884
0.473119
0.480698
0.508035
0.55832
0.615846
0.685253
0.765543
0.846511
0.917191
0.968883
0.998446
1
1
1
1
1
1
1
1
1
1
1
0.999868
-4.98175e-10
-5.56184e-10
1.30958e-06
0.000412174
0.0120913
0.0363822
0.0738235
0.13142
0.216078
0.334086
0.491189
0.674734
0.826859
0.938089
0.999229
1
1
1
1
1
1
1
0.999969
-8.8993e-10
-2.15002e-09
-1.97844e-12
3.80731e-08
3.63759e-07
7.27782e-07
1.69087e-06
3.49172e-06
6.5752e-06
1.26124e-05
0.00382637
0.0290982
0.100157
0.217601
0.391694
0.636525
0.894428
0.979601
0.98822
0.999983
0.999985
0.999982
0.999948
-1.02017e-09
-3.29831e-09
-1.26514e-08
-2.95887e-10
-8.70028e-10
-2.40383e-11
4.56544e-09
2.63894e-08
7.47806e-08
1.92087e-07
7.71797e-07
2.2037e-06
2.70381e-06
2.00985e-06
0.000155771
0.0136384
0.0512116
0.175471
0.379298
0.647102
0.797277
0.842155
0.899677
-4.72824e-10
-1.99753e-09
-9.68824e-09
-2.35663e-08
-3.01325e-08
-2.89282e-08
-3.30517e-11
-1.87274e-10
-5.61648e-11
-5.35768e-11
1.23672e-08
2.62612e-08
3.42061e-08
2.10129e-08
4.28689e-09
3.96619e-11
2.10563e-11
4.33906e-13
-9.02056e-42
-8.12886e-12
0.00632022
0.0739706
0.177071
-9.13218e-11
-4.39426e-10
-4.67815e-09
-1.25577e-08
-2.14777e-08
-3.14247e-08
-4.14382e-08
-4.98052e-08
-5.38047e-08
-4.32064e-08
-1.15745e-10
-1.91783e-10
-3.43675e-10
-1.17897e-11
0
2.22062e-09
1.10887e-08
3.99162e-09
4.74135e-27
-9.8938e-11
-7.65485e-11
-5.58505e-11
-1.9647e-11
-1.40206e-11
-3.87095e-11
-1.57434e-09
-4.57369e-09
-8.51801e-09
-1.31897e-08
-1.84987e-08
-2.44509e-08
-3.08084e-08
-3.69281e-08
-3.85758e-08
-3.23217e-08
-3.02488e-08
-3.06191e-08
-2.91267e-08
-1.95527e-08
-1.00168e-08
-4.48372e-09
-2.18509e-09
-1.147e-09
-6.11895e-10
-2.99533e-10
-7.68509e-11
-3.70783e-12
-3.05734e-12
-3.97796e-10
-1.28697e-09
-2.55205e-09
-4.10027e-09
-5.86164e-09
-7.85769e-09
-1.02465e-08
-1.30593e-08
-1.60521e-08
-1.8155e-08
-1.97327e-08
-2.0808e-08
-2.11713e-08
-1.91869e-08
-1.70915e-08
-1.46212e-08
-1.05704e-08
-6.20417e-09
-2.91413e-09
-1.07327e-09
-1.81082e-10
-7.91625e-13
-5.83949e-13
-8.16156e-11
-2.86821e-10
-5.88032e-10
-9.56701e-10
-1.37228e-09
-1.82037e-09
-2.31156e-09
-2.91876e-09
-3.64112e-09
-4.38907e-09
-5.05145e-09
-5.5473e-09
-5.78166e-09
-5.42922e-09
-4.48953e-09
-3.27083e-09
-2.1607e-09
-1.18868e-09
-4.00169e-10
2.79943e-11
6.11274e-10
-1.12993e-13
-8.72538e-14
-1.31863e-11
-4.89245e-11
-1.01129e-10
-1.6294e-10
-2.29629e-10
-2.97632e-10
-3.59982e-10
-4.09927e-10
-4.49562e-10
-4.79094e-10
-4.99444e-10
-4.94353e-10
-4.22843e-10
-2.6801e-10
-3.93557e-11
4.196e-10
1.33412e-09
1.69784e-09
1.70391e-09
1.74376e-09
2.21605e-09
-9.74201e-15
-1.70575e-14
-1.50224e-12
-5.85371e-12
-1.2094e-11
-1.89869e-11
-2.57007e-11
-3.1415e-11
-3.35765e-11
-2.81935e-11
-6.94626e-12
1.84393e-11
7.60931e-11
1.37035e-10
1.82356e-10
2.39508e-10
3.65726e-10
6.0197e-10
7.99717e-10
8.16234e-10
7.45036e-10
6.4155e-10
6.80674e-10
-6.64051e-16
-4.71131e-15
-1.05416e-13
-4.45397e-13
-9.67364e-13
-1.46803e-12
-1.80121e-12
-1.7617e-12
-7.98529e-13
1.66028e-12
9.36101e-12
2.95931e-11
5.89775e-11
6.54441e-11
6.05416e-11
4.40953e-11
2.54509e-11
1.90289e-11
2.01043e-11
2.51607e-11
2.58171e-11
1.83196e-11
7.88776e-12
-1.55253e-16
-9.88774e-16
-7.2864e-15
-3.9161e-14
-9.65832e-14
-1.33514e-13
-1.21054e-13
-1.55729e-14
1.3812e-13
8.45682e-13
8.5347e-13
1.07037e-12
2.67915e-12
4.28887e-12
4.22158e-12
3.21778e-12
1.63354e-12
9.71524e-13
1.00359e-12
1.16997e-12
1.52634e-12
2.27582e-12
3.82238e-12
-4.98167e-17
-3.31225e-16
-2.19728e-15
-9.70142e-15
-2.13988e-14
-2.52824e-14
-1.70844e-14
3.57725e-15
6.0252e-15
2.48967e-14
6.20496e-14
1.00611e-13
1.15629e-13
1.28547e-13
1.27387e-13
1.34546e-13
1.85817e-13
3.15067e-13
5.84406e-13
8.35816e-13
8.73112e-13
8.65405e-13
9.21747e-13
-1.31539e-17
-8.53336e-17
-5.11595e-16
-1.92696e-15
-3.74977e-15
-3.66472e-15
-1.74738e-15
3.11002e-17
8.12421e-16
4.11699e-15
7.9908e-15
1.02635e-14
1.15141e-14
1.09312e-14
8.49975e-15
5.67706e-15
5.58723e-15
6.15107e-15
7.43094e-15
8.6808e-15
1.03514e-14
1.55383e-14
3.25457e-14
-2.70475e-18
-1.62678e-17
-8.80576e-17
-2.89135e-16
-4.88688e-16
-3.82039e-16
-1.263e-16
3.2316e-17
8.63253e-17
3.16832e-16
6.05509e-16
7.64451e-16
7.61698e-16
5.88891e-16
2.96269e-16
1.20953e-16
1.1548e-16
1.30772e-16
1.67263e-16
2.81072e-16
8.91116e-16
3.85161e-15
2.19794e-14
-4.06715e-19
-2.16224e-18
-1.04263e-17
-2.97841e-17
-4.28547e-17
-2.55808e-17
-5.70108e-18
9.74093e-19
6.24491e-18
1.92906e-17
3.03321e-17
3.52211e-17
3.22411e-17
2.08734e-17
8.46544e-18
3.14939e-18
3.20198e-18
4.36716e-18
1.3068e-17
8.86003e-17
7.1909e-16
4.94811e-15
4.96875e-14
-4.17958e-20
-1.87445e-19
-7.74124e-19
-1.87735e-18
-2.2829e-18
-1.03375e-18
1.32089e-20
8.36093e-20
2.97831e-19
6.98797e-19
1.06713e-18
1.23325e-18
1.1562e-18
7.99657e-19
3.57445e-19
1.29816e-19
1.66446e-19
7.08018e-19
6.89299e-18
7.10015e-17
7.41216e-16
8.26286e-15
1.04236e-13
-3.25376e-21
-1.36234e-20
-5.05199e-20
-1.18068e-19
-1.63903e-19
-1.00465e-19
-5.94299e-21
3.38831e-21
9.16047e-21
1.62766e-20
2.96652e-20
3.71843e-20
3.83715e-20
2.88578e-20
1.22179e-20
6.44739e-21
2.95608e-20
3.6554e-19
4.43744e-18
4.62982e-17
6.8285e-16
1.21839e-14
1.72143e-13
-3.78489e-22
-1.95031e-21
-8.28048e-21
-2.22002e-20
-3.52105e-20
-2.08813e-20
-9.59828e-22
2.35559e-22
2.62189e-22
3.31713e-22
6.93602e-22
9.21473e-22
9.14747e-22
6.31017e-22
2.45547e-22
8.79639e-22
1.29679e-20
1.82735e-19
2.24743e-18
2.45512e-17
5.41936e-16
1.51209e-14
2.2689e-13
-4.69394e-23
-2.42493e-22
-1.08266e-21
-3.06221e-21
-5.0019e-21
-2.19021e-21
1.52853e-22
2.28962e-23
1.55528e-23
1.42013e-23
1.61343e-23
1.5093e-23
1.19619e-23
8.00505e-24
1.59352e-23
2.90656e-22
5.08219e-21
7.54984e-20
9.87097e-19
1.09822e-17
3.55312e-16
1.60831e-14
2.52116e-13
-2.94602e-24
-1.52182e-23
-7.11057e-23
-2.08524e-22
-3.10075e-22
1.31513e-22
6.14036e-23
1.32815e-24
8.69429e-25
6.69633e-25
4.39278e-25
1.8697e-25
4.52577e-26
1.87413e-25
4.49444e-24
9.54414e-23
1.72415e-21
2.85467e-20
3.83977e-19
4.29837e-18
1.95408e-16
1.15294e-14
2.1196e-13
-3.24328e-27
-5.58503e-27
-9.18344e-28
8.31745e-26
1.0205e-23
5.13172e-23
1.33819e-24
2.25936e-26
1.39657e-26
1.54381e-26
1.43013e-26
7.32249e-27
3.10792e-27
5.19795e-26
1.24829e-24
2.66359e-23
5.5136e-22
9.85453e-21
1.33889e-19
1.52755e-18
9.36493e-17
7.39891e-15
1.58037e-13
-2.71282e-30
-3.62998e-30
-2.36371e-30
-3.93121e-31
4.16793e-32
7.07087e-31
2.16813e-30
1.88562e-29
3.81247e-29
2.68159e-29
1.42396e-29
1.64959e-29
3.57994e-28
1.11757e-26
2.89294e-25
7.16293e-24
1.63678e-22
3.1158e-21
4.20968e-20
4.89318e-19
4.32686e-17
4.72285e-15
1.15122e-13
-3.3782e-44
-1.89205e-42
-1.71963e-41
-4.44942e-53
7.42498e-40
3.38953e-35
3.34426e-33
3.47416e-32
1.2103e-31
2.26252e-31
3.59044e-31
2.34676e-30
8.00641e-29
2.32408e-27
6.64989e-26
1.7916e-24
4.47991e-23
8.84025e-22
1.19343e-20
1.46693e-19
2.16781e-17
3.08179e-15
7.70453e-14
1.61647e-48
4.87779e-55
-3.85236e-61
7.57037e-47
1.81464e-43
1.68849e-38
2.05507e-35
5.57611e-34
2.50397e-33
5.27067e-33
1.27445e-32
3.61567e-31
1.32146e-29
4.44911e-28
1.40218e-26
4.1494e-25
1.09831e-23
2.17999e-22
2.99505e-21
4.47331e-20
1.2588e-17
2.02681e-15
4.98877e-14
6.78468e-51
1.30917e-50
5.20245e-52
-9.30506e-48
5.66319e-46
2.57795e-41
8.14667e-38
2.8031e-36
1.45791e-35
4.98553e-35
1.19158e-33
5.67631e-32
2.15658e-30
7.92989e-29
2.73679e-27
8.65333e-26
2.33078e-24
4.57784e-23
6.62337e-22
1.67324e-20
8.05893e-18
1.2594e-15
3.11354e-14
3.38689e-52
1.05025e-50
1.58344e-53
5.50943e-52
3.40966e-47
3.41909e-43
1.77245e-41
8.6445e-40
4.93862e-38
2.98827e-36
1.72232e-34
7.37085e-33
3.19313e-31
1.29274e-29
4.7792e-28
1.56416e-26
4.13272e-25
8.10892e-24
1.34992e-22
8.72089e-21
5.27578e-18
7.47779e-16
1.80709e-14
7.6291e-54
4.6041e-53
5.50633e-54
2.80358e-53
2.8991e-49
1.36063e-44
1.73383e-42
1.02981e-40
6.60813e-39
3.81054e-37
1.80879e-35
8.93801e-34
4.27821e-32
1.8696e-30
7.18643e-29
2.35891e-27
5.90891e-26
1.12896e-24
2.81094e-23
5.53938e-21
3.36563e-18
4.19637e-16
9.16897e-15
2.27255e-55
2.23088e-56
2.64967e-56
-2.48201e-53
1.80981e-48
7.94563e-46
7.58306e-44
7.11863e-42
4.98948e-40
2.98507e-38
1.76355e-36
9.69079e-35
4.9859e-33
2.31881e-31
9.1006e-30
2.7906e-28
5.65789e-27
9.43268e-26
7.06638e-24
2.98937e-21
1.97981e-18
2.08289e-16
3.77791e-15
6.00632e-57
8.22489e-60
1.68016e-58
1.02696e-55
5.99502e-50
4.52826e-47
5.15443e-45
4.17298e-43
3.24423e-41
2.41028e-39
1.55697e-37
8.84364e-36
4.98659e-34
2.63149e-32
1.11266e-30
1.68837e-29
3.17114e-29
4.69675e-27
6.81364e-25
1.22959e-21
9.72694e-19
8.27628e-17
1.18941e-15
1.1197e-58
0
3.59674e-60
3.53773e-57
2.00207e-51
1.86205e-48
2.24508e-46
2.22125e-44
1.95197e-42
1.52921e-40
1.07869e-38
6.71875e-37
5.76189e-35
3.17397e-33
2.65514e-32
6.73163e-32
7.42343e-30
1.24409e-27
1.97185e-25
3.56243e-22
3.4544e-19
2.31876e-17
2.73724e-16
4.74944e-61
-4.6648e-59
6.53957e-76
-1.02663e-58
1.20046e-54
6.24429e-50
8.4933e-48
9.62592e-46
9.30169e-44
7.56931e-42
6.04414e-40
6.57151e-38
4.55328e-36
3.96115e-35
9.1891e-35
1.04641e-32
1.93134e-30
3.21732e-28
4.93494e-26
5.75707e-23
7.06182e-20
4.29431e-18
5.33014e-17
-2.02844e-60
-1.21497e-58
-4.80242e-58
-8.6418e-62
9.11917e-55
1.66268e-51
2.55679e-49
3.26498e-47
3.2946e-45
2.70873e-43
4.38354e-41
5.34599e-39
5.84976e-38
8.53827e-38
6.13118e-36
1.29657e-33
2.47581e-31
4.22282e-29
6.47398e-27
2.665e-24
7.7557e-21
5.60327e-19
1.05e-17
-1.5419e-60
-1.04017e-58
-1.54289e-57
-4.1037e-59
2.274e-56
3.30912e-53
5.27674e-51
7.11041e-49
8.4015e-47
8.15327e-45
1.21792e-42
1.13749e-40
1.01097e-39
2.65247e-39
4.10972e-37
9.38698e-35
1.90862e-32
3.44837e-30
5.49893e-28
1.1798e-25
5.12906e-22
5.79152e-20
1.86021e-18
-6.65921e-61
-4.01706e-59
-8.25731e-58
-6.4846e-57
1.5488e-60
3.48346e-55
7.13127e-53
1.05498e-50
1.32448e-48
1.69565e-46
2.59955e-44
1.86337e-42
8.56604e-42
6.77764e-41
1.65795e-38
4.20734e-36
9.42664e-34
1.86379e-31
3.22823e-29
6.10295e-27
2.52893e-23
4.64252e-21
2.06456e-19
-1.45086e-61
-6.32331e-60
-1.19961e-58
-1.00131e-57
8.22556e-63
1.94625e-57
3.98056e-55
6.65808e-53
1.234e-50
2.26491e-48
6.4166e-46
1.49511e-44
1.82014e-44
1.11503e-42
3.65887e-40
1.06937e-37
2.74419e-35
6.18183e-33
1.21367e-30
2.93506e-28
1.35874e-24
2.42014e-22
1.32451e-20
-4.57806e-65
-4.83729e-64
-2.59023e-63
0
4.03987e-66
1.44746e-60
4.96304e-58
1.19061e-55
3.43634e-53
1.92939e-50
4.62109e-49
5.82876e-49
5.75598e-47
2.62718e-44
1.05879e-41
3.73409e-39
1.15201e-36
3.09199e-34
1.32054e-31
1.25345e-27
1.46057e-25
8.06974e-24
5.05751e-22
-1.09234e-65
-7.8353e-65
-3.56847e-64
-8.86098e-65
2.82934e-85
8.69844e-65
6.14518e-61
2.63517e-59
5.2303e-62
6.50664e-59
7.20993e-56
7.01562e-53
5.95615e-50
4.40285e-47
2.83315e-44
1.5873e-41
7.71975e-39
3.29156e-36
2.4221e-32
2.11186e-28
1.28081e-26
1.56283e-25
3.49641e-24
-4.62311e-68
-3.05826e-67
-2.23346e-66
-1.19003e-65
-5.78455e-90
-2.03562e-78
2.15882e-74
5.20615e-71
1.20814e-67
2.5927e-64
4.95133e-61
8.26944e-58
1.20044e-54
1.51292e-51
1.65639e-48
1.57662e-45
1.30531e-42
9.37898e-40
2.23763e-36
1.85129e-31
5.99756e-29
9.94889e-28
2.97682e-27
-1.48284e-86
6.51795e-86
9.60352e-89
-3.94568e-89
-1.54026e-84
-3.8933e-84
-1.98741e-86
-5.57236e-83
-9.36897e-80
-2.11708e-76
-5.31663e-73
-1.32471e-69
-3.0266e-66
-6.08451e-63
-1.05574e-59
-1.56755e-56
-1.97953e-53
-2.10245e-50
3.046e-41
3.86255e-35
1.29941e-31
5.12676e-30
1.65107e-29
-7.66406e-87
-8.25685e-87
-3.45729e-86
-9.94044e-106
-3.04144e-102
-1.70567e-104
-2.88221e-101
1.25893e-98
-2.86491e-97
-9.23348e-94
5.25467e-86
-2.84765e-84
-6.66203e-82
2.4363e-75
-1.17702e-73
-2.96179e-70
1.08703e-64
-4.89325e-63
-1.43306e-59
6.43063e-48
1.02357e-41
1.07893e-38
1.72532e-37
0.999665
0.999664
0.999664
0.999773
0.999941
0.999916
0.999897
0.999926
0.999919
0.999898
0.999879
0.999901
0.947904
0.968967
0.978423
0.986757
0.280679
0.345184
0.388208
0.443635
-3.16594e-11
-1.06342e-36
3.43657e-11
9.4687e-10
-9.54214e-11
-3.0366e-29
2.0678e-09
1.65825e-07
-8.85092e-11
-6.49934e-10
2.69506e-09
3.16528e-09
9.88277e-10
1.12376e-09
1.32058e-09
1.32339e-09
2.50025e-09
2.46408e-09
5.26293e-09
7.44926e-09
8.05179e-10
8.17608e-10
9.25072e-10
4.84978e-09
1.01102e-11
1.43006e-11
1.05935e-11
2.57948e-10
5.31594e-12
6.37832e-12
7.35371e-12
7.36924e-12
1.05102e-12
1.2018e-12
1.52497e-12
1.35366e-12
5.68534e-14
8.53725e-14
1.34354e-13
1.95756e-13
5.24864e-14
9.19007e-14
1.60834e-13
2.62252e-13
1.26153e-13
2.25718e-13
3.97356e-13
6.42955e-13
2.72686e-13
4.98908e-13
8.84796e-13
1.48327e-12
4.57418e-13
8.46811e-13
1.51078e-12
2.62653e-12
6.09393e-13
1.13102e-12
2.05453e-12
3.5966e-12
6.84661e-13
1.27321e-12
2.38568e-12
3.94358e-12
5.96932e-13
1.13324e-12
2.29767e-12
3.83613e-12
4.6387e-13
9.43194e-13
2.18784e-12
4.06592e-12
3.70392e-13
8.59828e-13
2.38255e-12
5.41006e-12
2.86323e-13
8.0622e-13
2.68765e-12
7.23956e-12
2.15822e-13
7.24905e-13
2.34126e-12
6.29579e-12
1.53651e-13
5.28858e-13
1.35986e-12
2.73151e-12
9.31187e-14
2.73874e-13
5.62279e-13
9.49771e-13
4.36928e-14
1.02335e-13
1.66905e-13
2.0604e-13
1.51371e-14
2.79639e-14
3.71386e-14
2.93036e-14
3.92439e-15
6.1499e-15
8.10203e-15
9.93369e-15
8.46947e-16
1.61257e-15
3.54297e-15
3.08665e-14
2.07803e-16
7.57531e-16
3.17033e-15
5.9252e-14
7.0073e-17
5.01723e-16
1.99385e-15
2.30774e-14
1.81558e-17
2.13265e-16
8.637e-16
8.85795e-16
2.1647e-18
4.11135e-17
2.40732e-16
2.70588e-16
1.40706e-19
4.00924e-18
3.13148e-17
3.91119e-17
5.66647e-21
2.8465e-19
2.68004e-18
2.54993e-18
5.17842e-23
3.18988e-21
2.10311e-20
5.59142e-21
2.89707e-27
1.2654e-24
1.92203e-23
9.03603e-24
6.18326e-36
3.37572e-33
2.72277e-30
-7.91131e-27
5.35841e-52
4.41787e-49
6.342e-47
-2.61672e-30
0.999961
0.999961
0.874639
0.545964
0.126333
0.00311789
0.000191022
2.03638e-05
1.15049e-06
1.13152e-06
1.20084e-06
2.72212e-06
4.81638e-05
0.00854253
0.564051
0.997994
0.998007
0.997647
0.908251
0.999958
0.999961
0.45369
0.0168057
0.0308801
0.00921272
0.000436581
1.35886e-05
1.1195e-06
1.11461e-06
1.11674e-06
1.17462e-06
2.50597e-06
4.95944e-05
0.528348
0.988158
0.997904
0.997567
0.951551
0.999936
0.999954
0.444109
0.000722846
0.000209774
0.00477042
0.000506888
1.33484e-06
1.11461e-06
1.11461e-06
1.11461e-06
7.06717e-07
2.41918e-06
0.000326165
0.746533
0.985799
0.996855
0.992058
0.906884
0.998997
0.999842
0.833456
0.000209875
0.00010842
0.00018476
0.000391011
1.58262e-05
1.08188e-06
1.11189e-06
1.11725e-06
7.15517e-07
-4.7676e-06
0.269371
0.841879
0.966452
0.885531
0.966761
0.906876
0.618676
0.968592
0.960366
0.451156
8.56976e-05
5.63692e-05
0.000137572
5.28961e-05
1.95863e-06
1.26128e-06
1.14157e-06
1.13623e-06
0.043603
0.590067
0.829597
0.596619
0.701387
0.966813
0.913068
0.0389588
0.457342
0.95414
0.948662
0.275464
3.08957e-05
8.80857e-06
2.83986e-05
9.82367e-06
1.45998e-06
1.26535e-06
-9.3726e-06
0.50396
0.703693
0.609621
0.255923
0.420702
0.950622
0.905856
2.81311e-06
0.000183198
0.323236
0.905721
0.844572
0.235789
4.6032e-06
2.13295e-06
2.25701e-06
1.47452e-06
1.47313e-06
0.255226
0.731187
0.717169
0.432417
0.163153
0.163821
0.586103
0.890541
2.08334e-08
2.81344e-06
0.000257771
0.325267
0.803701
0.753817
0.275014
1.75322e-06
1.58442e-06
1.58276e-06
0.0592188
0.7162
0.770872
0.61534
0.212626
0.160378
0.163153
0.229922
0.888251
1.87716e-09
1.88688e-08
4.84478e-06
0.00631582
0.317231
0.709685
0.696787
0.39255
1.75322e-06
0.0722888
0.660426
0.772978
0.77284
0.376493
0.151381
0.156307
0.184348
0.208465
0.589734
7.57918e-09
4.04547e-09
1.01994e-07
1.72762e-05
0.0048727
0.255537
0.597278
0.60738
0.484397
0.673551
0.774165
0.773547
0.625021
0.156362
0.139119
0.215593
0.218242
0.219479
0.218158
7.67004e-09
1.23434e-09
2.49721e-09
6.08594e-07
3.67567e-05
0.00154599
0.145074
0.474056
0.711113
0.774165
0.773632
0.750094
0.303977
0.135332
0.103277
0.167363
0.197696
0.221114
0.217733
1.45487e-09
5.6297e-10
4.4598e-10
2.46592e-08
1.97759e-06
6.06765e-05
0.000732118
0.0448486
0.246221
0.495304
0.621678
0.32186
0.0186066
0.0162793
0.00516254
0.00568557
0.0161234
0.211921
0.232871
1.64811e-11
4.0694e-11
1.67985e-11
5.77909e-10
1.07941e-07
4.40293e-06
6.96501e-05
0.000367589
0.00134451
0.0229533
0.0637332
0.00379451
0.00039794
0.000422684
0.000362543
0.00286482
0.100189
0.156031
0.211008
1.53398e-12
2.841e-12
1.92782e-12
-8.0686e-12
4.88139e-09
3.30744e-07
6.87427e-06
8.01486e-05
0.000402155
0.000139155
0.000185243
0.000121896
9.86818e-05
7.48418e-05
7.06764e-06
0.00456317
0.202764
0.202481
0.179072
3.91794e-13
1.25078e-12
1.51908e-12
-3.0397e-11
1.28776e-10
2.52598e-08
6.55903e-07
7.15959e-05
0.000347121
2.23696e-05
3.37316e-05
2.83526e-05
2.27515e-05
8.37764e-06
3.27571e-06
3.27756e-06
0.103854
0.204664
0.197227
5.8484e-13
1.63982e-12
5.62911e-12
3.22291e-12
2.67902e-11
1.96823e-09
2.35342e-06
0.000132448
5.30395e-05
4.58483e-06
6.06313e-06
5.75088e-06
4.60662e-06
5.4335e-06
4.42154e-06
3.24232e-06
3.38929e-06
0.206043
0.205896
1.46945e-12
3.24889e-12
1.105e-11
3.05555e-11
3.33647e-11
1.86985e-10
4.25958e-06
0.000100105
1.3221e-06
7.11801e-07
1.12832e-06
1.0441e-06
7.97925e-07
4.44179e-06
5.9711e-05
2.24455e-06
4.11822e-06
0.110769
0.205485
3.21186e-12
1.00163e-11
2.22617e-11
1.01404e-10
8.36129e-11
1.002e-10
4.32019e-06
9.83935e-06
4.0735e-07
1.27421e-07
2.10955e-07
1.9196e-07
1.33892e-07
4.92519e-06
7.36167e-05
2.9604e-06
0.00134953
0.0173135
0.183311
5.48244e-12
2.93931e-11
4.44693e-11
1.8731e-10
2.25821e-10
1.68206e-10
1.20339e-06
2.34894e-07
8.80676e-08
2.6192e-08
4.09076e-08
3.6728e-08
2.56318e-08
3.99932e-08
3.92235e-05
3.07586e-08
0.0558168
0.0429281
0.047428
7.36692e-12
6.03894e-11
8.00015e-11
2.11142e-10
5.68069e-10
2.74782e-10
2.50663e-10
3.49469e-08
1.52522e-08
6.22354e-09
8.89547e-09
7.28767e-09
3.09652e-09
1.4933e-08
2.19161e-08
2.13544e-08
0.0900551
0.0927769
0.0486175
1.1301e-11
6.74574e-11
1.56737e-10
2.38554e-10
6.33088e-10
3.65943e-10
3.40523e-10
6.38214e-09
3.57916e-09
2.0609e-09
2.79757e-09
1.95222e-09
1.18763e-09
1.34084e-07
2.60685e-08
2.62589e-08
0.0924487
0.0928096
0.0537566
2.66956e-11
1.03323e-10
4.00686e-10
2.89649e-10
6.33088e-10
4.25049e-10
4.11373e-10
1.46456e-09
1.28289e-09
1.03685e-09
1.53114e-09
1.02102e-09
9.29495e-10
8.82148e-07
9.23065e-08
6.92015e-08
0.0437472
0.0928096
0.0579285
5.40527e-11
1.7067e-10
5.34994e-10
3.43338e-10
5.98938e-10
4.27119e-10
4.30663e-10
6.41571e-10
8.1866e-10
8.20114e-10
1.26528e-09
8.7868e-10
8.85683e-10
8.74061e-07
6.31596e-08
6.12035e-08
8.72527e-07
0.0845074
0.109467
5.92914e-11
2.13717e-10
5.36037e-10
3.85707e-10
5.41718e-10
4.30625e-10
4.74138e-10
5.80615e-10
7.37438e-10
7.28611e-10
1.11599e-09
8.50602e-10
8.44982e-10
8.26021e-07
3.83926e-09
2.18669e-08
4.32782e-06
0.0745608
0.110193
3.59443e-11
2.05704e-10
4.08335e-10
4.79291e-10
4.82531e-10
8.8672e-09
1.22528e-08
8.17868e-10
7.28611e-10
7.28611e-10
9.46843e-10
8.44982e-10
8.43875e-10
6.68777e-08
1.03542e-09
-1.87425e-06
0.0386236
0.105147
0.109703
1.89579e-11
1.619e-10
1.49625e-10
1.04625e-09
7.88717e-10
2.26031e-08
2.36187e-08
1.36729e-08
1.06479e-09
7.28611e-10
9.09385e-10
8.98837e-10
8.41501e-10
7.39802e-10
7.672e-10
-6.42484e-08
0.10748
0.109647
0.109276
1.0159e-11
8.06143e-11
7.04282e-11
2.50456e-09
2.59764e-09
2.06566e-08
2.36684e-08
2.37182e-08
5.23206e-09
7.48909e-10
9.61141e-10
1.01627e-09
8.24811e-10
6.34961e-10
7.86387e-10
0.000281825
0.109088
0.109554
0.109479
4.81061e-12
3.2733e-11
6.20773e-11
2.85128e-09
4.3631e-09
7.76275e-09
2.37169e-08
2.37182e-08
2.18938e-08
3.34958e-09
1.12595e-09
9.82751e-10
6.29049e-10
6.34028e-10
6.34963e-10
2.31873e-09
0.0547959
0.109552
0.109156
2.04013e-12
1.69096e-11
9.81385e-11
1.95009e-09
4.41845e-09
1.65529e-09
5.92719e-09
2.01867e-08
2.06195e-08
5.93201e-09
1.23295e-09
4.95217e-10
5.13518e-10
1.81987e-07
1.07239e-07
1.99792e-08
0.00051506
0.109549
0.109493
8.68284e-13
6.72532e-12
8.47377e-11
5.51783e-10
3.07733e-09
4.3703e-10
5.09723e-10
2.50872e-09
4.75519e-09
3.18559e-09
8.32733e-10
4.34721e-10
4.51863e-10
6.85269e-07
3.85997e-07
3.3128e-08
6.60874e-08
0.0870894
0.109662
6.44098e-13
2.91261e-12
3.03727e-11
9.5507e-11
8.70915e-10
4.45717e-11
8.84489e-07
2.17946e-08
6.68946e-10
4.68179e-10
4.34664e-10
4.39949e-10
4.72564e-07
6.87749e-07
4.0263e-07
5.95546e-08
0.00048911
0.0217745
0.10936
8.29916e-13
2.86013e-12
8.82008e-12
3.98419e-11
2.15021e-10
4.68292e-11
2.49181e-06
1.95032e-08
1.4766e-09
5.75589e-10
4.68179e-10
2.33868e-09
5.82784e-07
5.98267e-07
8.795e-08
7.10797e-08
0.00127747
0.00561402
0.082421
1.41572e-12
4.28807e-12
8.47342e-12
2.31718e-11
1.04201e-10
1.39228e-11
7.66829e-07
1.27661e-05
1.89592e-05
1.61213e-05
8.93114e-06
2.85044e-06
1.06106e-07
6.99453e-08
6.90192e-08
6.9951e-08
7.10797e-08
0.0151776
0.0211284
1.8023e-12
6.61805e-12
1.07061e-11
1.52753e-11
3.7548e-11
1.37579e-11
1.37512e-11
2.09854e-05
2.12127e-05
2.13763e-05
2.11551e-05
4.11108e-06
7.97305e-08
6.89878e-08
6.90192e-08
6.90167e-08
1.26366e-07
0.0369905
0.0283415
1.10709e-12
6.78253e-12
1.66075e-11
2.28209e-11
2.59866e-11
1.37669e-11
1.37669e-11
6.02148e-06
2.13158e-05
2.13015e-05
1.63496e-05
3.70544e-07
8.94864e-08
7.97473e-08
6.06977e-07
5.2208e-07
1.79015e-07
0.0374143
0.0488771
4.77295e-13
4.64169e-12
1.46142e-11
2.68741e-11
8.38324e-11
4.02328e-10
2.2233e-10
5.16606e-10
4.94823e-06
7.48452e-06
4.63251e-06
9.12708e-06
7.0088e-05
0.000191697
0.00021047
8.20082e-05
5.02559e-07
0.00635414
0.0489993
7.87774e-14
1.69148e-12
1.03631e-11
3.53957e-11
3.71874e-10
3.45504e-09
1.40646e-08
8.2939e-09
1.40923e-08
2.02783e-08
1.8261e-08
0.000112776
0.000209607
0.00021047
0.00021047
0.000209085
1.99059e-05
7.46811e-06
0.0481528
1.15968e-14
5.44602e-13
5.44913e-12
2.60939e-11
2.88157e-10
3.20741e-09
1.50086e-08
8.82e-09
2.99009e-09
1.88927e-09
1.13687e-09
2.98936e-05
0.000109415
0.000210426
0.00021047
0.000178107
9.71816e-06
4.58704e-06
0.0277168
1.08215e-16
2.15535e-14
7.31701e-13
7.57978e-12
6.5513e-11
8.06582e-10
3.66415e-09
5.82886e-09
2.36199e-09
7.60008e-10
8.94667e-11
-5.93168e-10
3.34328e-07
3.80458e-05
4.82044e-05
1.88596e-05
1.11027e-08
7.76939e-07
0.0246281
2.75024e-20
7.18405e-17
1.25186e-14
5.7003e-13
9.52919e-12
1.05011e-10
3.01242e-10
2.36473e-09
2.03512e-09
7.78314e-10
1.56985e-11
-2.01395e-10
3.15643e-09
1.15022e-08
5.8133e-09
1.19382e-09
2.61576e-10
0.00501163
0.0289543
1.6924e-25
3.0335e-20
1.39407e-16
3.04012e-14
1.05601e-12
1.70391e-11
7.71463e-11
2.65385e-10
5.75799e-10
3.35704e-10
3.03296e-11
3.67178e-11
1.79377e-10
7.56028e-10
1.48187e-09
1.17059e-09
2.55001e-11
2.00687e-12
0.0265657
-8.39803e-31
1.06361e-26
2.21851e-20
1.22824e-16
1.65008e-14
5.55674e-13
4.35355e-12
6.01379e-12
2.42901e-11
3.31729e-11
2.15608e-11
2.15608e-11
1.10401e-10
4.0933e-10
2.16842e-09
9.83882e-10
3.17544e-11
0
0.00360642
)
;

boundaryField
{
    leftWall
    {
        type            zeroGradient;
    }
    rightWall
    {
        type            zeroGradient;
    }
    lowerWall
    {
        type            zeroGradient;
    }
    atmosphere
    {
        type            inletOutlet;
        inletValue      uniform 0;
        value           nonuniform List<scalar> 
46
(
0
0
0
0
0
0
0
0
0
0
0
0
0
0
0
0
0
0
0
0
0
0
0
0
0
0
0
0
0
0
1.22824e-16
1.65008e-14
5.55674e-13
4.35355e-12
6.01379e-12
2.42901e-11
3.31729e-11
2.15608e-11
2.15608e-11
1.10401e-10
4.0933e-10
2.16842e-09
0
0
0
0.00360642
)
;
    }
    defaultFaces
    {
        type            empty;
    }
}


// ************************************************************************* //
