/*--------------------------------*- C++ -*----------------------------------*\
| =========                 |                                                 |
| \\      /  F ield         | OpenFOAM: The Open Source CFD Toolbox           |
|  \\    /   O peration     | Version:  v2012                                 |
|   \\  /    A nd           | Website:  www.openfoam.com                      |
|    \\/     M anipulation  |                                                 |
\*---------------------------------------------------------------------------*/
FoamFile
{
    version     2.0;
    format      ascii;
    class       surfaceScalarField;
    location    "0.65";
    object      alphaPhi0.water;
}
// * * * * * * * * * * * * * * * * * * * * * * * * * * * * * * * * * * * * * //

dimensions      [0 3 -1 0 0 0 0];
oriented        oriented;


internalField   nonuniform List<scalar> 
4432
(
-4.95263e-06
4.95263e-06
-7.75769e-06
2.80506e-06
-7.65999e-06
-9.76972e-08
-6.47206e-06
-1.18793e-06
-5.13835e-06
-1.3337e-06
-4.00209e-06
-1.13626e-06
-3.14431e-06
-8.57778e-07
-2.54531e-06
-5.99003e-07
-2.14576e-06
-3.99554e-07
-1.86984e-06
-2.75913e-07
-1.65354e-06
-2.16301e-07
-1.47656e-06
-1.76978e-07
-1.31589e-06
-1.60674e-07
-1.19801e-06
-1.17871e-07
-1.16227e-06
-3.57471e-08
-1.33158e-06
1.69319e-07
-1.92354e-06
5.91957e-07
-3.17717e-06
1.25363e-06
-5.26428e-06
2.08722e-06
-7.79071e-06
2.9236e-06
-1.02291e-05
2.41624e-06
-9.07867e-06
-1.2683e-06
-9.39574e-06
-4.24049e-06
9.19312e-06
-5.29917e-06
3.86374e-06
-4.93181e-06
-4.65054e-07
-4.041e-06
-2.07875e-06
-3.09285e-06
-2.28184e-06
-2.30183e-06
-1.92729e-06
-1.73302e-06
-1.42659e-06
-1.37447e-06
-9.57562e-07
-1.17848e-06
-5.9554e-07
-1.08629e-06
-3.68098e-07
-1.04495e-06
-2.57645e-07
-1.0231e-06
-1.98812e-07
-1.02135e-06
-1.62432e-07
-1.0328e-06
-1.06409e-07
-1.0794e-06
1.0844e-08
-1.21062e-06
3.0055e-07
-1.52162e-06
9.02962e-07
-2.17504e-06
1.90707e-06
-3.29176e-06
3.20398e-06
-4.61272e-06
4.37583e-06
-5.3763e-06
3.43137e-06
-5.19982e-06
-1.56289e-06
-1.46193e-05
-2.71528e-06
1.19084e-05
-3.09164e-06
4.24011e-06
-2.76785e-06
-7.88843e-07
-2.15335e-06
-2.69325e-06
-1.53697e-06
-2.89823e-06
-1.0615e-06
-2.40276e-06
-7.64464e-07
-1.72362e-06
-6.33116e-07
-1.08891e-06
-6.28282e-07
-6.00372e-07
-6.99413e-07
-2.96965e-07
-8.00402e-07
-1.56658e-07
-9.08425e-07
-9.07803e-08
-1.02015e-06
-5.07114e-08
-1.12768e-06
1.12809e-09
-1.22764e-06
1.10794e-07
-1.32871e-06
4.01632e-07
-1.45743e-06
1.03168e-06
-1.66828e-06
2.11792e-06
-1.95677e-06
3.49247e-06
-2.15456e-06
4.57365e-06
-2.12208e-06
3.54554e-06
-1.86086e-06
-2.04814e-06
-1.65034e-05
-1.14284e-06
1.30512e-05
-1.07748e-06
4.17475e-06
-8.03505e-07
-1.06282e-06
-4.34692e-07
-3.06207e-06
-1.43818e-07
-3.1891e-06
1.41901e-08
-2.56077e-06
3.59746e-08
-1.7454e-06
-6.27852e-08
-9.90151e-07
-2.49846e-07
-4.13309e-07
-4.82568e-07
-6.42406e-08
-7.20258e-07
8.10281e-08
-9.45629e-07
1.34599e-07
-1.15878e-06
1.62429e-07
-1.34449e-06
1.86847e-07
-1.48495e-06
2.51248e-07
-1.55968e-06
4.76373e-07
-1.55376e-06
1.02576e-06
-1.46361e-06
2.02778e-06
-1.23019e-06
3.25905e-06
-7.17591e-07
4.06106e-06
-2.80314e-07
3.10913e-06
3.62894e-07
-2.73502e-06
-1.61681e-05
4.61699e-07
1.25895e-05
8.30631e-07
3.80582e-06
1.07098e-06
-1.30317e-06
1.17253e-06
-3.16362e-06
1.12465e-06
-3.14122e-06
9.58267e-07
-2.39439e-06
7.03788e-07
-1.49092e-06
3.75978e-07
-6.62341e-07
-1.72899e-09
-3.56012e-08
-3.94397e-07
3.28429e-07
-7.64797e-07
4.51424e-07
-1.10304e-06
4.72849e-07
-1.40696e-06
4.66345e-07
-1.6619e-06
4.41786e-07
-1.83554e-06
4.24891e-07
-1.88606e-06
5.26901e-07
-1.77327e-06
9.12962e-07
-1.47187e-06
1.72639e-06
-9.10717e-07
2.69789e-06
-9.83396e-09
3.16017e-06
1.04117e-06
2.05812e-06
1.51225e-06
-3.2061e-06
-1.46577e-05
1.96113e-06
1.06284e-05
2.67375e-06
3.09319e-06
2.85314e-06
-1.48255e-06
2.64454e-06
-2.95502e-06
2.23224e-06
-2.72892e-06
1.74239e-06
-1.90453e-06
1.22328e-06
-9.71812e-07
6.7782e-07
-1.16881e-07
1.18245e-07
5.23974e-07
-4.27857e-07
8.74533e-07
-9.24935e-07
9.48497e-07
-1.36787e-06
9.15784e-07
-1.75663e-06
8.55106e-07
-2.07373e-06
7.58892e-07
-2.27606e-06
6.27216e-07
-2.30549e-06
5.56331e-07
-2.10704e-06
7.14507e-07
-1.65691e-06
1.27626e-06
-8.85047e-07
1.92603e-06
2.55979e-07
2.01915e-06
1.56771e-06
7.46396e-07
2.15165e-06
-3.79004e-06
-1.25086e-05
3.09487e-06
7.53354e-06
4.40173e-06
1.78632e-06
4.46735e-06
-1.54817e-06
3.89376e-06
-2.38144e-06
3.10652e-06
-1.9417e-06
2.31701e-06
-1.11502e-06
1.56628e-06
-2.2108e-07
8.28194e-07
6.2121e-07
1.05003e-07
1.24716e-06
-5.84219e-07
1.56375e-06
-1.1984e-06
1.56268e-06
-1.73668e-06
1.45406e-06
-2.20126e-06
1.31969e-06
-2.57312e-06
1.13076e-06
-2.80027e-06
8.54356e-07
-2.81078e-06
5.66847e-07
-2.54252e-06
4.4625e-07
-1.98906e-06
7.228e-07
-1.09414e-06
1.03111e-06
1.80549e-07
7.44459e-07
1.6381e-06
-7.11154e-07
2.42837e-06
-4.58031e-06
-1.00814e-05
4.05678e-06
3.47676e-06
5.89529e-06
-8.02902e-08
5.71848e-06
-1.28224e-06
4.77308e-06
-1.35963e-06
3.64958e-06
-8.12742e-07
2.62662e-06
-9.22771e-08
1.70582e-06
6.99713e-07
8.21342e-07
1.50569e-06
-3.81066e-08
2.10661e-06
-8.53997e-07
2.37965e-06
-1.57108e-06
2.27976e-06
-2.19422e-06
2.07721e-06
-2.72294e-06
1.8484e-06
-3.14e-06
1.54783e-06
-3.38679e-06
1.10115e-06
-3.37862e-06
5.58674e-07
-3.0512e-06
1.18831e-07
-2.42725e-06
9.88525e-08
-1.46496e-06
6.88185e-08
-1.37139e-07
-5.83362e-07
1.35402e-06
-2.20231e-06
2.32601e-06
-5.5523e-06
-7.75651e-06
8.87692e-07
-3.64467e-06
-6.5092e-05
4.15666e-05
-0.000134841
6.3391e-05
-0.000165692
2.50453e-05
-0.000171553
1.75602e-07
-0.000167189
-6.06379e-06
-0.000161994
-5.43503e-06
-0.000157141
-4.90067e-06
-0.000152753
-4.35821e-06
-0.000148387
-4.36804e-06
-0.000143749
-4.66666e-06
-0.000136471
-6.39625e-06
-0.000124461
-1.05808e-05
-0.000106517
-1.84606e-05
-7.99905e-05
-2.71864e-05
-4.98828e-05
-3.07029e-05
-2.14294e-05
-2.84681e-05
-1.00204e-06
-2.06102e-05
-1.06965e-06
-3.33266e-05
1.29644e-05
-8.54915e-05
8.36288e-05
-5.30172e-05
2.0407e-05
-4.40212e-05
1.40953e-06
-7.37408e-05
-4.67599e-07
-0.000108441
-1.25605e-06
-0.0001273
-2.97175e-06
-0.000138543
-4.19504e-06
-0.000141843
-7.85692e-06
-0.000137349
-1.07163e-05
-0.000131869
-1.02073e-05
-0.000125823
-1.24249e-05
-0.000117033
-1.93401e-05
-0.000101914
-3.35468e-05
-7.95198e-05
-4.95595e-05
-5.42522e-05
-5.59501e-05
-3.05032e-05
-5.21887e-05
-1.05042e-05
-4.05473e-05
-1.16659e-05
-4.9727e-05
4.97543e-05
-2.49004e-05
5.87454e-05
-1.42933e-06
3.72928e-08
-1.70085e-07
4.04232e-08
-6.68939e-07
-1.70782e-08
-1.92987e-06
-6.70252e-10
-4.85011e-06
-6.54951e-08
-1.59671e-05
-3.07783e-07
-5.88357e-05
-1.56547e-06
-9.87723e-05
-4.13417e-06
-0.000115407
-7.75781e-06
-0.000113255
-1.85341e-05
-0.000105298
-2.72808e-05
-9.26631e-05
-4.61562e-05
-7.40117e-05
-6.819e-05
-5.28811e-05
-7.7052e-05
-3.2511e-05
-7.20006e-05
-1.46344e-05
-5.68892e-05
-2.55156e-05
-2.65949e-05
5.00189e-05
2.70293e-06
1.87699e-05
4.00037e-07
1.66421e-06
3.72517e-08
3.55414e-07
-1.89678e-09
1.25912e-08
-9.71235e-09
-1.22018e-10
-8.0733e-08
1.67004e-09
-3.97411e-07
5.59244e-10
-1.94978e-06
-1.72362e-08
-5.83215e-06
-3.15666e-07
-2.84507e-05
-1.33431e-06
-7.4338e-05
-6.42834e-06
-9.08274e-05
-2.47595e-05
-8.18028e-05
-5.51707e-05
-6.61639e-05
-8.38045e-05
-4.84382e-05
-9.4735e-05
-3.09277e-05
-8.90284e-05
-1.43122e-05
-6.83525e-05
-3.71004e-05
1.8857e-06
4.10186e-05
4.89677e-06
1.29558e-05
1.72079e-06
2.13068e-06
5.39587e-07
1.38038e-06
6.70235e-08
4.35801e-07
1.12308e-09
6.31431e-08
-2.76721e-09
1.47757e-09
-8.46908e-09
2.62671e-09
-2.61342e-08
-4.2815e-10
-3.28783e-07
-1.31806e-08
-1.57545e-06
-1.02026e-07
-7.50362e-06
-7.448e-07
-5.06431e-05
-7.75202e-06
-6.84117e-05
-5.65154e-05
-5.65619e-05
-9.56285e-05
-4.18854e-05
-0.000109392
-2.77467e-05
-0.000103182
-1.26663e-05
-8.66593e-05
-4.97778e-05
1.22941e-05
2.52213e-05
1.82062e-05
3.33678e-06
1.21827e-05
-1.82228e-06
2.5193e-06
9.154e-06
6.74758e-07
2.10828e-06
6.23202e-08
6.52675e-07
7.03408e-11
6.19422e-08
-1.06951e-09
1.84585e-09
-2.25362e-09
3.52696e-10
-1.51595e-08
-8.93245e-10
-1.05261e-07
-1.69272e-08
-7.29546e-07
-1.52386e-07
-8.95402e-06
-1.19988e-06
-5.07295e-05
-3.31944e-05
-4.61164e-05
-0.000100225
-3.41658e-05
-0.000121323
-2.29135e-05
-0.000114415
-1.0848e-05
-9.86331e-05
-6.06375e-05
3.21586e-05
3.78988e-05
7.23768e-05
-2.14875e-05
8.18456e-05
-2.9863e-05
1.60789e-05
2.15139e-05
4.00211e-06
1.21969e-05
5.8081e-07
3.97945e-06
2.2396e-08
5.94082e-07
-8.30408e-10
2.5939e-08
-9.02295e-10
4.27542e-10
-2.19873e-09
-5.96834e-11
-1.52553e-08
-4.24809e-09
-1.26285e-07
-4.03974e-08
-1.02312e-06
-3.49354e-07
-2.72475e-05
-1.22348e-05
-3.54564e-05
-0.00010045
-2.60265e-05
-0.000130734
-1.73836e-05
-0.000123039
-8.53765e-06
-0.000107104
-6.9188e-05
4.11626e-05
-1.37597e-06
6.34548e-05
-4.37791e-05
7.85283e-05
-4.46272e-05
4.88224e-05
3.37803e-06
4.13561e-06
2.05248e-05
8.9361e-07
6.68007e-06
6.6248e-08
1.35218e-06
-5.32934e-10
9.40102e-08
-4.14651e-10
3.54559e-10
-5.29533e-10
1.68335e-11
-3.67707e-09
-1.12653e-09
-3.49145e-08
-1.1568e-08
-2.72339e-07
-1.23348e-07
-9.73413e-06
-3.92779e-06
-2.51354e-05
-8.93159e-05
-1.8104e-05
-0.000137747
-1.19179e-05
-0.000129195
-5.99077e-06
-0.000112922
-7.52027e-05
5.93049e-06
4.45253e-15
8.10557e-06
2.18033e-15
8.09298e-06
1.55471e-09
6.93257e-06
1.41296e-07
5.5799e-06
2.77928e-07
4.28423e-06
4.87854e-07
2.84193e-06
9.08565e-07
1.14863e-06
1.5952e-06
-8.10132e-07
2.44853e-06
-2.9256e-06
3.14796e-06
-4.81488e-06
3.36571e-06
-6.34752e-06
3.60984e-06
-7.62239e-06
3.12327e-06
-8.62083e-06
2.54627e-06
-9.1819e-06
1.66222e-06
-9.10724e-06
4.84018e-07
-8.21461e-06
-7.73799e-07
-6.7314e-06
-1.38435e-06
-4.59521e-06
-2.06738e-06
-1.70815e-06
-3.47042e-06
1.38478e-06
-5.29523e-06
3.66815e-06
-7.83567e-06
-1.01014e-05
6.00754e-06
-6.20021e-15
1.90299e-14
-8.32243e-15
1.38413e-14
4.65759e-10
7.73731e-12
1.21757e-08
1.68564e-10
5.23869e-08
3.84182e-10
3.37573e-08
8.92116e-11
-8.89564e-08
-4.17327e-10
-3.59152e-07
-1.89142e-09
-8.746e-07
-3.36154e-09
-1.86583e-06
-1.06941e-08
-3.70458e-06
3.56879e-07
-6.03511e-06
1.16528e-06
-8.39888e-06
1.86318e-06
-1.04838e-05
2.23068e-06
-1.11683e-05
1.80392e-06
-1.0934e-05
2.4974e-07
-9.68808e-06
-2.0197e-06
-8.1114e-06
-2.96102e-06
-5.9918e-06
-4.18696e-06
-2.94623e-06
-6.51599e-06
3.70919e-07
-8.61236e-06
3.55509e-06
-1.10198e-05
-1.46615e-05
8.11793e-06
-1.07923e-15
2.3052e-14
-9.4977e-15
3.18009e-14
2.37446e-12
1.20519e-13
1.36841e-10
2.46534e-12
4.37811e-10
9.44868e-12
3.70227e-10
1.45625e-11
-3.65995e-10
3.17577e-11
-2.78061e-09
3.49137e-11
-6.91242e-09
4.68974e-11
-1.88596e-08
7.31144e-11
-1.02048e-07
-4.57104e-10
-5.73728e-07
-2.85895e-09
-1.46642e-06
-4.56507e-09
-2.77801e-06
-1.80492e-09
-4.95286e-06
5.80713e-09
-8.33834e-06
-2.24922e-07
-9.0237e-06
-1.23392e-06
-7.80141e-06
-2.4798e-06
-5.71922e-06
-5.26138e-06
-2.20949e-06
-1.00244e-05
1.26469e-06
-1.20852e-05
4.36201e-06
-1.41157e-05
-1.84576e-05
8.16258e-06
1.87787e-14
7.99207e-15
4.57069e-14
2.34156e-14
-2.0315e-14
3.5226e-14
2.07449e-12
4.63329e-13
8.42286e-12
2.93202e-12
1.52602e-11
7.73058e-12
2.83841e-11
1.4771e-11
5.4034e-11
1.51332e-12
8.65406e-11
2.78591e-12
1.27804e-10
7.60837e-12
-4.40855e-10
1.92154e-11
-3.45195e-09
3.19307e-11
-8.08526e-09
5.55937e-12
-9.83449e-09
-2.43471e-11
-4.11982e-08
-2.29679e-11
-2.02319e-07
-7.10616e-12
-7.92289e-07
-2.36985e-14
-1.47103e-06
-5.13686e-14
-1.68569e-06
-1.00952e-15
5.65553e-07
1.1769e-16
3.17467e-06
-3.8503e-06
5.21768e-06
-6.41526e-06
-1.16627e-05
7.41286e-06
3.89094e-15
1.36571e-15
1.36365e-14
5.38853e-15
-2.10992e-14
3.37825e-14
-1.70841e-13
3.3581e-14
-3.34004e-13
-5.29973e-15
-4.01393e-13
-7.27855e-14
1.95578e-13
4.51408e-14
1.25882e-12
4.591e-13
2.58578e-12
1.46258e-12
5.3074e-12
4.89948e-12
2.04597e-11
2.22739e-12
4.85819e-11
1.58238e-12
5.20739e-11
7.5136e-13
2.85757e-11
-4.40979e-13
7.09549e-12
-2.42627e-13
-1.32901e-16
-1.29202e-14
-2.33754e-16
-2.45171e-14
-3.84935e-18
-5.15803e-14
2.83586e-18
-1.01621e-15
-1.97895e-17
1.7078e-15
8.04158e-08
1.24645e-15
9.94033e-07
1.09294e-15
4.41375e-16
2.61089e-06
3.10566e-16
1.99769e-16
-1.20272e-16
5.12636e-16
-1.37319e-14
1.55591e-14
-8.27856e-14
2.89573e-14
-2.16677e-13
2.82815e-14
-4.1396e-13
7.49903e-15
-6.57144e-13
-8.65673e-14
-9.03165e-13
-2.36097e-13
-1.08745e-12
-4.045e-13
-9.81697e-13
-4.4877e-13
9.32454e-13
3.22417e-13
1.57547e-12
9.40146e-13
1.52543e-12
8.28849e-13
6.61313e-13
4.2098e-13
1.91425e-13
2.27261e-13
3.48196e-14
2.7438e-14
2.20425e-13
8.18707e-15
2.83419e-14
2.86039e-14
7.61754e-16
2.65639e-14
-1.2468e-15
1.68754e-14
-8.90637e-16
9.37191e-15
-6.80852e-16
6.02801e-15
1.87501e-15
-2.77485e-16
-2.25748e-18
5.34272e-17
-4.93866e-17
4.38973e-17
-5.31224e-15
4.76617e-15
-2.81672e-14
1.17315e-14
-7.77389e-14
1.60476e-14
-1.59261e-13
1.44202e-14
-2.76386e-13
4.55535e-15
-4.33456e-13
-4.77664e-14
-6.33304e-13
-1.44469e-13
-8.72498e-13
-2.70088e-13
-1.03622e-12
-3.62449e-13
-9.55273e-13
-3.33307e-13
-9.42503e-13
-3.03699e-13
-9.79305e-13
-2.81246e-13
-9.5346e-13
-2.33662e-13
-6.46369e-13
-1.10632e-13
-3.22869e-13
-1.54073e-14
-1.32956e-13
5.55559e-14
-5.65105e-14
8.8427e-14
-2.53752e-14
6.80848e-14
-1.19851e-14
3.72416e-14
-4.65872e-15
1.72702e-14
3.02923e-15
-6.05875e-16
-2.35509e-18
1.19096e-17
-5.31112e-18
9.02787e-18
-1.3647e-15
1.11609e-15
-7.25432e-15
3.24729e-15
-2.07686e-14
5.16844e-15
-4.43203e-14
5.92014e-15
-7.9675e-14
4.88628e-15
-1.29517e-13
1.70514e-15
-2.00145e-13
-1.67929e-14
-2.97848e-13
-5.2754e-14
-4.20741e-13
-9.61851e-14
-5.32987e-13
-1.30088e-13
-6.29405e-13
-1.48016e-13
-7.04817e-13
-1.50014e-13
-7.52318e-13
-1.34646e-13
-7.02668e-13
-8.7624e-14
-6.24469e-13
-2.77481e-14
-5.08319e-13
6.63616e-15
-3.35088e-13
1.14547e-14
-1.75093e-13
8.90926e-15
-7.13367e-14
3.6165e-15
-2.00055e-14
-3.63395e-16
-5.19116e-15
-1.88553e-15
-5.79065e-19
1.78258e-18
-1.01013e-18
1.43605e-18
-2.55886e-16
1.98854e-16
-1.41723e-15
6.42261e-16
-4.1533e-15
1.10345e-15
-9.02565e-15
1.39464e-15
-1.64892e-14
1.4105e-15
-2.69356e-14
1.1065e-15
-4.11197e-14
4.87103e-16
-6.12674e-14
-2.44374e-15
-8.85113e-14
-9.73653e-15
-1.20743e-13
-1.73996e-14
-1.53421e-13
-2.34345e-14
-1.82129e-13
-2.63451e-14
-2.01759e-13
-2.48349e-14
-1.97274e-13
-1.69802e-14
-1.64959e-13
-5.46042e-15
-1.17211e-13
-8.17036e-16
-7.30011e-14
-4.69731e-15
-3.68423e-14
-7.93744e-15
-1.09671e-14
-9.27671e-15
6.57639e-15
-8.70652e-15
-5.65596e-15
1.51249e-14
-6.86658e-20
1.5961e-19
-1.25573e-19
2.94919e-19
-3.4328e-17
2.4403e-17
-2.008e-16
8.56312e-17
-5.97789e-16
1.53813e-16
-1.30214e-15
2.02013e-16
-2.37023e-15
2.17762e-16
-3.83612e-15
1.97429e-16
-5.64538e-15
1.39234e-16
-7.65543e-15
6.07738e-17
-9.79318e-15
3.01959e-18
-1.19081e-14
-4.27628e-16
-1.38511e-14
-8.79855e-16
-1.49864e-14
-1.07123e-15
-1.37484e-14
-8.8647e-16
-9.14914e-15
-4.03254e-16
-1.37435e-15
-1.70186e-17
2.72264e-14
-4.9689e-16
5.5132e-14
-2.20776e-15
5.41966e-14
-3.33139e-15
4.98837e-14
-3.13371e-15
4.64285e-14
-1.68345e-15
2.54592e-15
4.70487e-14
-3.70448e-21
1.11321e-20
-1.72988e-20
8.44431e-20
-2.9393e-18
1.81177e-18
-1.87298e-17
7.06911e-18
-5.72138e-17
1.37841e-17
-1.24074e-16
1.82675e-17
-2.2095e-16
1.89764e-17
-3.42545e-16
1.51355e-17
-4.51159e-16
5.33398e-18
-4.55618e-16
-8.95327e-18
-1.31998e-16
-3.09229e-17
8.00828e-16
-5.75869e-17
2.61886e-15
-7.0035e-17
4.44371e-15
-3.49915e-17
6.13659e-15
-1.02365e-17
8.80291e-15
-1.66792e-17
1.47294e-14
-3.09723e-17
2.33345e-14
-5.19126e-17
2.60838e-14
-9.31832e-17
2.49316e-14
-1.12647e-16
2.01761e-14
-6.0187e-17
1.70955e-14
1.75422e-16
6.83651e-16
1.73052e-14
-8.19159e-23
2.62179e-21
-2.65907e-21
1.81583e-20
-1.36596e-19
1.30559e-19
-1.02626e-18
6.61029e-19
-3.46569e-18
1.4997e-18
-7.52086e-18
1.86707e-18
-1.24567e-17
1.49235e-18
-1.57626e-17
1.65431e-19
-8.94135e-18
-1.24774e-18
4.84199e-17
-9.19812e-18
2.43261e-16
-9.22877e-18
7.83995e-16
-9.27029e-18
1.37039e-15
-1.85179e-17
1.54953e-15
-2.29694e-17
1.46379e-15
-1.84497e-17
9.72988e-16
-1.23104e-17
5.98844e-16
-5.90018e-18
5.64676e-16
-3.24535e-18
6.21681e-16
-2.63454e-18
7.48716e-16
-1.82398e-18
7.24725e-16
3.18673e-19
3.81582e-16
5.36299e-18
1.88432e-17
2.27674e-16
9.05414e-23
8.36697e-22
-1.57643e-22
6.16587e-21
-5.02258e-21
4.05352e-20
-5.79098e-20
1.71416e-19
-2.43493e-19
3.54575e-19
-5.08785e-19
3.86153e-19
-6.4644e-19
2.36744e-19
-1.10524e-19
-4.44686e-20
2.40615e-18
-1.2085e-19
9.586e-18
-4.29695e-19
1.16455e-17
-9.17461e-19
2.00228e-17
-1.26848e-18
6.33058e-17
-1.27504e-18
8.71678e-17
-1.2283e-18
9.32152e-17
-1.05502e-18
6.26187e-17
-9.71079e-19
2.98888e-17
-1.13367e-18
2.58785e-17
-1.45966e-18
2.7623e-17
-1.7364e-18
3.46541e-17
-1.15087e-18
4.72737e-17
4.24807e-19
7.32298e-17
2.64824e-18
1.13066e-17
1.1985e-16
8.29818e-23
2.1763e-22
3.71716e-22
1.59546e-21
-3.86238e-22
9.61431e-21
-7.39955e-21
3.51787e-20
-3.39144e-20
6.52157e-20
-6.66915e-20
5.98322e-20
-6.68974e-20
2.64468e-20
3.13188e-20
-4.57348e-22
5.84903e-20
-1.83519e-20
3.36991e-19
-8.34051e-20
8.89416e-19
-1.46845e-19
1.45336e-18
-1.69509e-19
1.85468e-18
-1.68982e-19
2.20621e-18
-1.43556e-19
2.43071e-18
-1.00248e-19
2.93083e-18
-6.01349e-20
4.9604e-18
-5.14311e-20
9.41643e-18
-4.71287e-20
1.72424e-17
-4.22961e-20
2.13356e-17
-2.62107e-20
2.16215e-17
1.46123e-19
2.14512e-17
9.06188e-19
1.40938e-18
2.38816e-17
3.0297e-23
4.37895e-23
2.1066e-22
3.03232e-22
4.41435e-22
1.67094e-21
-3.37399e-22
5.39531e-21
-2.98177e-21
8.80223e-21
-5.9678e-21
6.55571e-21
-4.66649e-21
2.04318e-21
2.25821e-21
-4.98136e-22
7.75828e-21
-2.2352e-21
4.11411e-20
-7.70272e-21
8.19211e-20
-1.35366e-20
1.16353e-19
-1.56007e-20
1.42446e-19
-1.41991e-20
1.48745e-19
-1.0008e-20
1.15054e-19
-4.58959e-21
9.87264e-20
-1.69268e-21
1.06915e-19
-1.39849e-21
1.33433e-19
-1.31595e-21
1.72434e-19
-1.24595e-21
2.08281e-19
-1.08964e-21
2.66857e-19
-2.81918e-22
4.82729e-19
9.56226e-21
1.24285e-19
1.09761e-18
6.68216e-24
6.4176e-24
5.03743e-23
3.99553e-23
1.5185e-22
1.98333e-22
1.37538e-22
5.63037e-22
-7.68392e-23
7.90695e-22
-3.01991e-22
4.55158e-22
-2.04099e-22
9.69335e-23
1.91721e-22
-2.99838e-23
5.0002e-22
-1.80489e-22
2.31139e-21
-5.2819e-22
4.72349e-21
-7.78613e-22
6.30982e-21
-8.4105e-22
7.51819e-21
-7.12786e-22
5.5458e-21
-4.25094e-22
2.47048e-21
-1.57942e-22
1.71124e-21
-5.34172e-23
1.87779e-21
-4.72558e-23
2.4889e-21
-5.15396e-23
3.65265e-21
-9.68277e-23
7.4483e-21
-3.48951e-22
2.88245e-20
-7.8882e-22
1.36959e-19
6.5687e-21
1.12395e-19
7.53952e-19
9.24677e-25
6.41627e-25
6.90368e-24
3.41977e-24
2.15679e-23
1.46776e-23
2.64189e-23
3.56913e-23
8.60657e-24
4.27603e-23
-3.03503e-24
1.88638e-23
-4.27065e-24
-2.32993e-25
6.11865e-24
-2.68455e-24
2.53709e-23
-9.34725e-24
9.2525e-23
-2.10302e-23
1.65739e-22
-3.0321e-23
2.2116e-22
-3.29702e-23
2.30605e-22
-2.89323e-23
1.37448e-22
-1.85994e-23
5.10177e-23
-7.68979e-24
3.87042e-23
-2.54671e-24
4.40003e-23
-2.712e-24
8.09255e-23
-8.04326e-24
3.39777e-22
-5.50431e-23
2.72276e-21
-3.64267e-22
2.34236e-20
-1.57172e-21
1.70603e-19
4.74109e-21
3.00409e-19
1.62146e-18
7.81516e-26
4.85935e-26
5.40337e-25
2.44719e-25
1.58352e-24
9.50524e-25
1.93465e-24
2.24418e-24
7.26002e-25
3.09381e-24
-5.31254e-27
1.86345e-24
4.48612e-27
1.07516e-25
9.25865e-26
-1.1365e-25
6.35217e-25
-3.04086e-25
2.11076e-24
-5.23247e-25
4.03608e-24
-9.09157e-25
5.64304e-24
-1.08397e-24
6.3646e-24
-1.06027e-24
4.29798e-24
-7.5136e-25
1.76584e-24
-2.98441e-25
1.29103e-24
-1.36695e-25
2.25438e-24
-4.66176e-25
1.52409e-23
-4.47438e-24
1.74914e-22
-4.29328e-23
1.96983e-21
-3.31589e-22
2.22276e-20
-2.37886e-21
2.65751e-19
-2.33198e-21
4.7619e-19
3.13861e-18
5.30684e-27
5.50513e-27
3.51895e-26
3.44348e-26
1.06639e-25
1.54085e-25
1.63196e-25
4.19921e-25
9.66444e-26
6.65816e-25
4.71317e-27
3.9084e-25
-1.66763e-27
1.76616e-26
-1.92463e-28
-7.88818e-27
6.97638e-27
-8.87923e-27
2.71485e-26
-1.10315e-26
7.43109e-26
-2.24805e-26
1.19464e-25
-2.8821e-26
1.61131e-25
-2.74768e-26
1.21959e-25
-1.80716e-26
5.22128e-26
-6.49396e-27
5.06767e-26
-1.81635e-26
4.68544e-25
-2.16286e-25
7.08515e-24
-2.64215e-24
9.62724e-23
-2.74305e-23
1.12406e-21
-2.3175e-22
1.85381e-20
-2.83305e-21
3.57695e-19
-2.02391e-20
5.07433e-19
4.73604e-18
6.92254e-28
6.66073e-28
5.5762e-27
4.20423e-27
2.04864e-26
1.98763e-26
3.81368e-26
5.74317e-26
2.37803e-26
9.43053e-26
1.03525e-27
4.11266e-26
-2.14335e-28
-2.84067e-27
-1.432e-28
-7.84316e-28
-4.04639e-29
-5.33022e-28
1.63599e-28
-4.81682e-28
9.22851e-28
-5.43709e-28
1.75819e-27
-4.99128e-28
2.55431e-27
-3.8463e-28
1.78083e-27
-2.45121e-28
1.20332e-27
-3.98048e-28
8.95571e-27
-6.12552e-27
1.76207e-25
-9.69209e-26
2.90228e-24
-1.27969e-24
4.08372e-23
-1.43982e-23
5.15527e-22
-1.29682e-22
1.30988e-20
-2.60265e-21
3.99343e-19
-4.34779e-20
3.21296e-19
5.67346e-18
7.77022e-29
4.08601e-29
6.94454e-28
2.58962e-28
2.81506e-27
1.28567e-27
5.65104e-27
3.86698e-27
2.74916e-27
5.80724e-27
-1.96061e-28
-2.46585e-27
-2.80433e-29
-1.14543e-27
-1.70558e-29
-4.78164e-29
-1.01436e-29
-3.09516e-29
-4.71405e-30
-2.34872e-29
3.91827e-30
-1.51959e-29
1.26992e-29
-6.34832e-30
1.67166e-29
-1.47936e-30
1.99092e-29
-5.25355e-30
8.08604e-29
-1.10729e-28
2.45509e-27
-2.20115e-27
5.34711e-26
-3.67167e-26
9.58193e-25
-5.46717e-25
1.47522e-23
-6.51039e-24
1.95646e-22
-6.09474e-23
7.51312e-21
-1.87724e-21
3.7762e-19
-5.61099e-20
-4.23854e-21
5.70037e-18
4.4225e-30
4.40405e-32
4.33584e-29
9.32554e-32
1.88884e-28
1.63328e-32
3.57277e-28
-1.73096e-30
-1.74967e-28
-1.89203e-28
-8.75821e-29
-9.5719e-28
-2.58155e-30
-4.99583e-29
-1.36702e-30
-8.41723e-31
-9.02532e-31
-5.16197e-31
-4.84887e-31
-5.6311e-31
-1.29829e-31
-5.12527e-31
3.29487e-33
-2.57223e-31
2.88877e-32
-9.99199e-32
4.35873e-31
-1.42228e-30
1.84921e-29
-3.29622e-29
5.56192e-28
-6.67231e-28
1.33171e-26
-1.27906e-26
2.79053e-25
-2.09857e-25
4.58328e-24
-2.58269e-24
6.34232e-23
-2.52829e-23
3.53332e-21
-1.10805e-21
2.37722e-19
-5.01377e-20
-2.68053e-19
4.32312e-18
1.49352e-33
3.61119e-35
5.36114e-34
5.94628e-35
-8.431e-32
4.1312e-35
-2.42334e-30
7.08672e-36
-7.07969e-29
-1.55938e-36
-4.05337e-30
-2.64875e-35
-5.05307e-32
-8.17097e-35
-2.25091e-32
-7.07726e-34
-2.33998e-32
-1.42558e-33
-2.03207e-32
-9.95712e-34
-1.04683e-32
-5.20115e-34
-2.11149e-33
-5.67223e-34
-1.05473e-33
-1.11282e-32
3.54368e-32
-3.27242e-31
2.46739e-30
-8.09747e-30
9.24758e-29
-1.90331e-28
2.85616e-27
-4.09557e-27
6.95839e-26
-7.28676e-26
1.22058e-24
-9.07913e-25
1.80463e-23
-9.23776e-24
1.40928e-21
-5.90011e-22
1.31204e-19
-4.04796e-20
-4.08563e-19
2.86442e-18
9.10124e-37
4.41221e-49
1.33666e-36
3.03983e-47
3.46109e-37
2.95135e-46
-5.07329e-38
-1.73318e-45
-3.57018e-37
-1.25889e-42
-1.34021e-36
-1.36483e-39
-1.73349e-35
-1.25127e-37
-6.89381e-35
-1.29127e-36
-5.88171e-35
-4.48819e-36
-2.42604e-35
-8.35019e-36
-2.1864e-35
-1.30827e-35
-3.50365e-35
-7.8079e-35
-7.21801e-34
-2.51054e-33
-1.09453e-32
-7.12954e-32
2.42332e-32
-1.9574e-30
9.59462e-30
-5.03476e-29
4.61876e-28
-1.19838e-27
1.40658e-26
-2.25285e-26
2.70604e-25
-2.8399e-25
4.37695e-24
-3.06135e-24
5.19778e-22
-3.21979e-22
6.97361e-20
-3.18324e-20
-4.29258e-19
1.82236e-18
4.528e-49
-2.07258e-53
9.53702e-48
-1.56153e-54
-8.54708e-47
-2.55012e-51
-1.81367e-45
-4.98752e-48
-1.21185e-42
-1.8263e-45
-5.96496e-40
-1.38199e-42
-2.16737e-38
-7.72806e-40
-1.44227e-37
-2.05838e-38
-3.36662e-37
-9.25078e-38
-4.70438e-37
-1.94747e-37
-7.97693e-37
-4.64099e-37
-9.08061e-36
-1.22024e-35
-2.48511e-34
-4.37439e-34
-5.8702e-33
-1.42625e-32
-1.12567e-31
-4.34617e-31
-1.24583e-30
-1.23723e-29
2.79919e-29
-3.14823e-28
1.85913e-27
-6.00197e-27
4.58567e-26
-7.76374e-26
8.97134e-25
-9.80301e-25
1.93557e-22
-1.99116e-22
3.5905e-20
-2.47316e-20
-3.80185e-19
1.02862e-18
-1.14988e-56
-8.53689e-56
-1.32246e-54
-2.50549e-55
-2.53506e-51
-1.63802e-53
-4.95969e-48
-1.59812e-50
-1.80433e-45
-6.12069e-48
-1.41492e-42
-4.0386e-45
-2.62971e-40
-3.0643e-42
-2.82188e-39
-1.03568e-40
-7.04493e-39
-5.41275e-40
-1.2241e-38
-1.86041e-39
-5.16812e-38
-4.26788e-38
-1.69031e-36
-1.96284e-36
-5.7645e-35
-7.34572e-35
-1.75011e-33
-2.64129e-33
-4.79182e-32
-8.87961e-32
-1.17797e-30
-2.72787e-30
-1.90687e-29
-7.14291e-29
-4.06005e-29
-1.35767e-27
3.97636e-27
-1.83578e-26
1.47549e-25
-3.12764e-25
7.27229e-23
-1.3559e-22
1.70222e-20
-1.78488e-20
-3.03538e-19
5.25931e-19
-2.27593e-57
-8.13217e-57
-4.10646e-57
-1.91877e-55
-1.62714e-53
-3.1298e-56
-1.75422e-50
-2.19001e-53
-6.05289e-48
-1.23623e-50
-4.54391e-45
-1.25234e-47
-1.16947e-42
-6.45971e-46
-1.22214e-41
-3.21556e-44
-3.63281e-41
-1.85991e-42
-1.86773e-40
-1.10677e-40
-7.03813e-39
-6.11765e-39
-3.04336e-37
-2.63102e-37
-1.16471e-35
-1.12107e-35
-4.18648e-34
-4.45652e-34
-1.39737e-32
-1.61622e-32
-4.2371e-31
-5.17921e-31
-9.19816e-30
-1.34392e-29
-8.75949e-29
-2.57494e-28
-4.27331e-28
-4.04975e-27
7.75267e-27
-2.2965e-25
2.07423e-23
-9.59025e-23
6.33224e-21
-1.19818e-20
-2.17764e-19
2.30584e-19
-2.38263e-57
-1.81648e-58
-3.01735e-58
-1.3711e-57
-2.96362e-56
-8.30095e-58
-2.09579e-53
-8.84444e-55
-1.07819e-50
-4.90494e-52
-1.26647e-48
-5.20292e-49
-6.83303e-47
-6.20461e-47
-3.97488e-45
-3.71081e-45
-2.64237e-43
-2.37799e-43
-1.90958e-41
-1.37392e-41
-9.80208e-40
-6.6308e-40
-4.56091e-38
-3.25614e-38
-2.04686e-36
-1.54082e-36
-8.46355e-35
-6.63326e-35
-3.2155e-33
-2.51343e-33
-1.03815e-31
-8.13982e-32
-2.22834e-30
-2.03885e-30
-2.36497e-29
-4.05554e-29
-3.48498e-28
-1.37289e-27
-6.25316e-26
-2.21206e-25
-1.15186e-23
-7.24985e-23
1.18775e-21
-7.60397e-21
-1.33877e-19
7.20986e-20
-1.00469e-59
-5.2995e-60
-1.40983e-59
-6.94854e-61
-1.00818e-58
-7.015e-59
-7.86838e-55
-9.33539e-56
-4.01135e-52
-6.92936e-53
-8.00714e-50
-2.89525e-50
-7.10078e-48
-2.84051e-48
-5.22274e-46
-2.63127e-46
-3.80139e-44
-1.846e-44
-2.11866e-42
-1.11309e-42
-1.13165e-40
-6.54886e-41
-6.13496e-39
-3.59336e-39
-3.13349e-37
-1.83137e-37
-1.43475e-35
-8.36116e-36
-5.88415e-34
-3.2261e-34
-1.82126e-32
-1.00736e-32
-3.23474e-31
-2.28849e-31
-5.44694e-30
-7.8279e-30
-3.29376e-28
-9.60569e-28
-1.21677e-25
-1.93109e-25
-4.40472e-23
-5.03291e-23
-1.75028e-21
-4.30552e-21
-6.58714e-20
4.07906e-21
-5.35769e-63
-1.38193e-61
-1.42136e-62
-2.00431e-63
-6.58719e-59
-2.96886e-60
-9.2498e-56
-3.51125e-57
-1.69804e-53
-3.41595e-54
-3.06908e-51
-1.65857e-51
-3.84271e-49
-1.87386e-49
-3.69807e-47
-1.55352e-47
-2.68105e-45
-1.22131e-45
-1.82611e-43
-9.03002e-44
-1.17512e-41
-5.82468e-42
-7.11541e-40
-3.33487e-40
-4.03993e-38
-1.84439e-38
-2.03745e-36
-9.45725e-37
-8.45795e-35
-3.92394e-35
-2.05988e-33
-7.35684e-34
-3.76771e-32
-2.60838e-32
-2.27599e-30
-4.06596e-30
-3.82502e-28
-6.77248e-28
-1.4251e-25
-1.29419e-25
-4.82819e-23
-2.84063e-23
-2.39107e-21
-1.94979e-21
-2.41612e-20
-1.77808e-20
-1.54476e-65
-2.55629e-63
-8.97781e-65
-2.40728e-64
-2.83838e-60
-1.01395e-61
-3.37751e-57
-1.21986e-58
-7.89518e-55
-1.23419e-55
-1.99013e-52
-6.83996e-53
-2.21011e-50
-8.32142e-51
-2.05819e-48
-8.30519e-49
-1.87674e-46
-7.34758e-47
-1.52147e-44
-5.79971e-45
-1.02714e-42
-4.11778e-43
-6.68296e-41
-2.63531e-41
-4.45258e-39
-2.08864e-39
-3.3976e-37
-1.10106e-37
-2.44825e-35
-1.39499e-36
-1.22563e-34
-8.55968e-35
-9.54637e-33
-1.33006e-32
-1.72272e-30
-2.24369e-30
-3.15451e-28
-3.53835e-28
-1.13874e-25
-5.72967e-26
-3.40257e-23
-1.13415e-23
-1.46761e-21
-6.13755e-22
-6.20573e-21
-1.04849e-20
-3.50009e-67
-3.33094e-65
-8.73601e-64
6.32523e-64
-9.68758e-62
-4.51214e-63
-1.19189e-58
-2.38506e-60
-2.88658e-56
-1.93778e-57
-7.3922e-54
-2.30183e-54
-9.83019e-52
-3.1606e-52
-1.1019e-49
-3.60415e-50
-1.08102e-47
-3.50656e-48
-9.43402e-46
-2.93578e-46
-6.48212e-44
-2.41697e-44
-6.54731e-42
-2.37825e-42
-1.22974e-39
-1.56946e-40
-3.33694e-38
-1.99201e-39
-2.48341e-37
-1.26769e-37
-5.28796e-35
-2.30828e-35
-7.92168e-33
-4.08137e-33
-1.41137e-30
-6.57855e-31
-2.36837e-28
-9.70246e-29
-5.7965e-26
-1.39784e-26
-1.44933e-23
-2.59349e-24
-4.89102e-22
-1.23915e-22
-1.27513e-21
-3.15648e-21
8.98995e-66
2.24669e-65
-6.1704e-65
1.61284e-63
-1.14676e-62
6.89373e-63
-2.33642e-60
-7.16303e-62
-1.59069e-57
-6.96703e-59
-2.36344e-55
-6.14293e-56
-3.63631e-53
-9.52808e-54
-4.64419e-51
-1.2187e-51
-4.68934e-49
-1.25893e-49
-4.04822e-47
-1.16588e-47
-5.29608e-45
-1.68942e-45
-1.48629e-42
-1.76961e-43
-4.59523e-41
-2.28208e-42
-3.09032e-40
-7.55435e-41
-9.76922e-38
-1.59715e-38
-1.79702e-35
-3.18688e-36
-3.218e-33
-5.69988e-34
-5.2799e-31
-9.15782e-32
-7.95568e-29
-1.32551e-29
-1.46759e-26
-1.76407e-27
-3.06699e-24
-3.21715e-25
-9.48068e-23
-1.72636e-23
-2.59825e-22
-8.40838e-22
2.36053e-65
1.67785e-65
2.2558e-64
1.35215e-63
-3.48251e-63
2.17432e-62
-7.57228e-62
6.09668e-64
-1.81288e-59
-1.58861e-60
-5.96743e-57
-1.20866e-57
-1.05746e-54
-1.95296e-55
-1.44305e-52
-2.66601e-53
-1.2934e-50
-3.18948e-51
-2.00048e-48
-3.30705e-49
-1.27576e-45
-4.51109e-47
-7.50533e-44
-3.8519e-45
-2.61535e-43
-5.23715e-44
-6.23231e-41
-5.02047e-42
-1.35441e-38
-1.18793e-39
-2.71215e-36
-2.50809e-37
-4.87811e-34
-4.69919e-35
-7.8995e-32
-7.8263e-33
-1.15609e-29
-1.16036e-30
-1.68905e-27
-1.54136e-28
-3.24018e-25
-2.59087e-26
-1.29873e-23
-1.91329e-24
-4.84354e-23
-2.84582e-22
2.30553e-65
7.09875e-66
7.54705e-64
5.11442e-64
2.98247e-65
1.14404e-62
-7.68682e-62
9.50188e-62
-3.28487e-61
-9.05758e-63
-1.07651e-58
-1.29672e-59
-1.90728e-56
-2.6229e-57
-2.93431e-54
-3.92543e-55
-3.24013e-52
-5.07917e-53
-5.6135e-50
-6.62228e-51
-2.64632e-47
-9.06984e-49
-8.45035e-46
-6.31957e-47
-7.01615e-45
-9.73124e-46
-4.39782e-42
-2.05615e-43
-1.05557e-39
-5.39665e-41
-2.2318e-37
-1.24821e-38
-4.19163e-35
-2.54274e-36
-7.00734e-33
-4.56634e-34
-1.04513e-30
-7.23286e-32
-1.3905e-28
-1.01321e-29
-2.38276e-26
-1.61755e-27
-1.62848e-24
-1.6087e-25
-5.63698e-24
-7.61347e-23
1.16093e-65
1.5047e-66
4.54166e-64
7.88561e-65
4.87955e-63
1.63775e-63
-5.51134e-64
1.4515e-62
-9.49433e-63
-4.6148e-65
-1.14033e-60
-7.12693e-62
-2.32622e-58
-1.47653e-59
-3.57015e-56
-2.59814e-57
-5.10208e-54
-4.96834e-55
-1.15186e-51
-9.31772e-53
-6.0464e-49
-2.08166e-50
-5.88587e-48
-5.17433e-49
-1.53505e-46
-1.36333e-47
-1.87532e-43
-4.5181e-45
-4.96715e-41
-1.35879e-42
-1.14996e-38
-3.57428e-40
-2.34605e-36
-8.22869e-38
-4.22262e-34
-1.65852e-35
-6.71304e-32
-2.92579e-33
-9.42258e-30
-4.51379e-31
-1.49456e-27
-8.05787e-29
-1.5364e-25
-8.48417e-27
-3.65955e-25
-9.73207e-24
2.58592e-66
4.56069e-70
7.95988e-65
5.90929e-69
8.1569e-64
3.49713e-68
-2.81639e-66