/*--------------------------------*- C++ -*----------------------------------*\
| =========                 |                                                 |
| \\      /  F ield         | OpenFOAM: The Open Source CFD Toolbox           |
|  \\    /   O peration     | Version:  v2012                                 |
|   \\  /    A nd           | Website:  www.openfoam.com                      |
|    \\/     M anipulation  |                                                 |
\*---------------------------------------------------------------------------*/
FoamFile
{
    version     2.0;
    format      ascii;
    class       volScalarField;
    location    "0.65";
    object      epsilon;
}
// * * * * * * * * * * * * * * * * * * * * * * * * * * * * * * * * * * * * * //

dimensions      [0 2 -3 0 0 0 0];


internalField   nonuniform List<scalar> 
2268
(
0.023018
0.0611965
0.0998149
0.134705
0.160108
0.179103
0.19503
0.209822
0.224315
0.238793
0.253063
0.266474
0.278422
0.287872
0.292844
0.291875
0.281669
0.260341
0.228948
0.192386
0.159682
0.126218
0.103796
0.0282442
0.0427366
0.0596145
0.0752513
0.0875022
0.097132
0.105413
0.113104
0.120509
0.127705
0.134634
0.141143
0.147038
0.15202
0.15558
0.15764
0.157382
0.154033
0.14719
0.136575
0.123777
0.105472
0.112118
0.0341573
0.0387752
0.0516583
0.0637762
0.0734798
0.0812565
0.0879885
0.0942372
0.100244
0.106075
0.111703
0.117056
0.122034
0.126484
0.130198
0.133182
0.135119
0.135714
0.134649
0.131209
0.125411
0.119538
0.15796
0.0350829
0.0372443
0.0481258
0.0585021
0.0670638
0.0741268
0.0803392
0.0861262
0.091684
0.0970757
0.102298
0.107312
0.112068
0.116482
0.120466
0.12403
0.127087
0.129556
0.131239
0.131622
0.130733
0.135269
0.20817
0.0345429
0.036719
0.0458932
0.0549586
0.0628529
0.0696537
0.0757565
0.081456
0.0869072
0.0921789
0.0972852
0.102219
0.106959
0.111471
0.115717
0.11973
0.123548
0.127233
0.130743
0.133927
0.137597
0.151856
0.26033
0.0342369
0.0364988
0.0440884
0.0521563
0.0596802
0.0664556
0.0726443
0.0784281
0.083927
0.0892217
0.0943387
0.0992925
0.104094
0.108741
0.113233
0.117629
0.122052
0.12668
0.131655
0.13723
0.145229
0.16885
0.314655
0.0332679
0.0361565
0.0424505
0.0498467
0.0572301
0.0641148
0.0704748
0.0764085
0.0820232
0.0874021
0.0925783
0.0975904
0.102478
0.107268
0.111989
0.116731
0.121682
0.12712
0.133374
0.141067
0.153006
0.186228
0.386494
0.0314559
0.0353517
0.04089
0.0480372
0.0554825
0.0625274
0.0690549
0.0751342
0.0808646
0.0863342
0.0915781
0.0966559
0.101629
0.106554
0.111488
0.116553
0.121989
0.128156
0.135545
0.145036
0.159995
0.201395
0.544588
3.66317
2.03364
2.29885
2.71273
2.98046
3.24285
3.52741
3.86255
4.24767
4.66406
5.07503
5.45745
5.79685
6.03196
5.96311
5.27845
3.9762
2.34007
0.483908
2.07923
3.33904
2.27792
1.93189
1.73551
1.72837
1.85834
2.00554
2.15295
2.29265
2.41034
2.48126
2.4979
2.47683
2.40377
2.18319
1.77608
1.25008
0.625343
2.76829
3.81027
4.22385
3.08327
3.63442
2.04212
2.00228
1.96877
1.91703
1.95784
1.99628
1.99036
1.94593
1.88447
1.81495
1.67772
1.43678
1.13815
0.813132
3.64626
7.21633
14.4697
24.5985
56.4706
26.4091
9.88228
2.96316
1.95878
1.94486
1.87963
1.79708
1.71116
1.61059
1.52863
1.42789
1.27225
1.0925
0.941118
3.57901
10.4602
11.6977
12.9792
22.3373
31.4722
14.2759
6.59156
3.50781
2.28
1.86937
1.72097
1.54375
1.41118
1.32092
1.24561
1.14679
1.04287
1.04198
2.61002
5.7797
5.62314
5.95983
8.64766
14.6309
16.981
8.00648
4.07699
2.82738
2.24897
1.62151
1.38299
1.24051
1.15701
1.10341
1.04392
0.99296
1.12388
0.845529
2.69946
3.89743
4.26411
4.63774
6.38511
10.7091
10.0614
4.84895
3.35668
2.76423
1.78995
1.15629
1.09127
1.02957
0.99626
0.962657
0.949246
1.19114
0.731608
1.10492
1.98635
2.77253
3.11686
4.70965
8.13035
11.0286
5.57438
3.88774
3.37244
2.33105
1.11063
0.976705
0.93678
0.92167
0.90293
0.914433
1.25373
0.0291871
0.0327602
0.0387711
0.0462948
0.0540128
0.0612156
0.0678926
0.0741083
0.0799509
0.0855061
0.0908209
0.0959827
0.101071
0.106185
0.111428
0.11697
0.123112
0.130309
0.139238
0.150868
0.167653
0.199735
0.290974
0.0346292
0.0336537
0.0390193
0.046751
0.0548316
0.0618385
0.068409
0.0745721
0.0803809
0.0859595
0.0913969
0.0966322
0.101722
0.106933
0.112454
0.118536
0.125452
0.133647
0.143882
0.156697
0.172884
0.196297
0.235207
0.149673
0.0917982
0.0755331
0.0687631
0.0627384
0.0641605
0.0693787
0.0750767
0.0806791
0.0862326
0.0920067
0.0974994
0.102691
0.108189
0.114238
0.120878
0.12812
0.136806
0.147698
0.160437
0.174714
0.191902
0.213057
0.207493
0.117149
0.106023
0.101189
0.0951009
0.0935164
0.0949887
0.0982146
0.10283
0.107518
0.106502
0.101141
0.103541
0.108544
0.114676
0.121753
0.130126
0.140447
0.152135
0.163825
0.17609
0.190125
0.205148
0.218629
0.128464
0.117246
0.113781
0.111083
0.109898
0.110183
0.111866
0.115089
0.119257
0.12211
0.123724
0.127399
0.132794
0.136383
0.129309
0.13195
0.140926
0.152357
0.164069
0.177817
0.1924
0.205054
0.220163
0.130285
0.119789
0.117979
0.117631
0.118016
0.119082
0.120973
0.123864
0.127487
0.13083
0.13362
0.137395
0.142916
0.148147
0.151431
0.155426
0.162297
0.171868
0.181653
0.18453
0.193427
0.205613
0.220439
0.129619
0.118888
0.117792
0.118931
0.120894
0.123358
0.126326
0.1299
0.133946
0.137954
0.141628
0.145577
0.150385
0.155561
0.160646
0.166696
0.175221
0.185678
0.195276
0.203706
0.217896
0.240469
0.2222
0.128433
0.116607
0.115541
0.117414
0.120441
0.124111
0.12828
0.132909
0.137884
0.142907
0.147741
0.152578
0.157779
0.163385
0.169326
0.176023
0.1841
0.193614
0.204125
0.216725
0.234754
0.257647
0.223357
0.126505
0.1136
0.112255
0.114369
0.117977
0.122438
0.12752
0.133107
0.139058
0.145157
0.151219
0.157259
0.163452
0.169912
0.176678
0.183939
0.19201
0.201169
0.211703
0.224446
0.240639
0.259672
0.22351
0.123942
0.110142
0.108406
0.110473
0.114299
0.119176
0.124815
0.13106
0.137772
0.144777
0.151905
0.159095
0.166391
0.173846
0.181492
0.189424
0.197846
0.207063
0.217472
0.229626
0.244067
0.260585
0.222387
0.12088
0.106393
0.104243
0.106103
0.1099
0.114901
0.12079
0.127395
0.134577
0.142195
0.150109
0.158218
0.166479
0.174875
0.1834
0.192099
0.201116
0.210712
0.22124
0.233118
0.246758
0.262377
0.219938
0.117462
0.102471
0.0999259
0.101494
0.105105
0.110021
0.115922
0.122632
0.130026
0.137982
0.14638
0.155114
0.164105
0.173291
0.182632
0.192137
0.201904
0.212137
0.223135
0.235274
0.248995
0.264792
0.21621
0.113803
0.0984695
0.0955772
0.0968202
0.100149
0.104839
0.110577
0.117197
0.124588
0.132649
0.141282
0.150387
0.159877
0.169674
0.179722
0.190006
0.200592
0.211636
0.223399
0.236251
0.250683
0.267364
0.210876
0.109858
0.0944679
0.091303
0.0922209
0.0952168
0.09959
0.105043
0.111429
0.118653
0.126638
0.135306
0.144578
0.154374
0.164618
0.175253
0.186256
0.197668
0.209617
0.222339
0.236204
0.251752
0.269768
0.204203
0.10574
0.0905478
0.0872023
0.0878124
0.0904531
0.0944568
0.099549
0.105601
0.112541
0.120315
0.128872
0.138154
0.148102
0.158657
0.169768
0.181416
0.19363
0.20652
0.220306
0.23536
0.252259
0.271882
0.196699
0.101628
0.0868138
0.0833629
0.0836922
0.085974
0.0895829
0.0942698
0.0999277
0.106507
0.11398
0.122321
0.131501
0.141488
0.152244
0.16374
0.175962
0.188941
0.202776
0.217675
0.234009
0.252385
0.273749
0.188887
0.097698
0.0833703
0.0798627
0.0799392
0.0818682
0.0850755
0.0893378
0.0945704
0.100746
0.107861
0.11592
0.124923
0.134868
0.145748
0.157556
0.170296
0.184003
0.198774
0.214808
0.23247
0.252377
0.27552
0.181247
0.094107
0.0803096
0.0767684
0.07661
0.0782021
0.0810107
0.0848462
0.0896437
0.0953976
0.102129
0.109868
0.118649
0.128502
0.139452
0.15152
0.164735
0.179144
0.194843
0.212024
0.231039
0.252497
0.277394
0.174182
0.0909879
0.0777085
0.0741337
0.0737467
0.0750133
0.077439
0.0808547
0.0852217
0.0905538
0.0968938
0.1043
0.112838
0.12257
0.133557
0.145854
0.159516
0.174609
0.191235
0.209576
0.229964
0.252978
0.279574
0.168006
0.0884432
0.075625
0.0719969
0.071377
0.0723235
0.0743795
0.0773952
0.081345
0.0862652
0.092222
0.0992969
0.107585
0.117185
0.128193
0.140701
0.154795
0.170565
0.188121
0.207639
0.229422
0.253996
0.282236
0.162936
0.0865438
0.0740973
0.0703807
0.069514
0.0701401
0.0718355
0.074468
0.0780241
0.0825518
0.0881373
0.0948918
0.102935
0.112401
0.123424
0.136134
0.150653
0.167098
0.185594
0.206309
0.229513
0.255664
0.285518
0.159105
0.0853293
0.0731434
0.0692916
0.0681569
0.0684566
0.0697965
0.0720588
0.0752407
0.0794005
0.0846376
0.091082
0.0988904
0.108225
0.11926
0.132165
0.147102
0.164221
0.183665
0.205599
0.230257
0.258018
0.289496
0.156565
0.0848101
0.0727617
0.0687206
0.0672912
0.0672543
0.0682399
0.0701414
0.0729639
0.0767747
0.0816849
0.0878411
0.0954198
0.104623
0.115665
0.128756
0.1441
0.161884
0.182278
0.205447
0.231592
0.261012
0.294164
0.155312
0.0849714
0.0729326
0.0686446
0.0668905
0.0665038
0.0671333
0.06868
0.071154
0.0746288
0.0792257
0.0851063
0.0924682
0.101539
0.11257
0.125826
0.141553
0.159981
0.181308
0.205712
0.233372
0.264508
0.299429
0.155296
0.0857785
0.0736215
0.0690279
0.0669183
0.0661674
0.0664371
0.0676323
0.0697645
0.0729109
0.0772004
0.0828078
0.0899503
0.0988827
0.109889
0.12327
0.13933
0.158355
0.180573
0.206187
0.235363
0.268268
0.305074
0.156445
0.0871821
0.0747818
0.0698256
0.0673306
0.0662014
0.0661071
0.0669522
0.0687464
0.0715673
0.0755482
0.0808744
0.0877805
0.0965471
0.107492
0.120958
0.13729
0.156818
0.179844
0.206598
0.237254
0.271947
0.310749
0.158671
0.0891234
0.0763595
0.0709867
0.0680789
0.066559
0.0660973
0.0665933
0.0680512
0.0705454
0.0742104
0.0792381
0.0858775
0.0944319
0.105252
0.118722
0.135237
0.155176
0.178876
0.206625
0.238662
0.275101
0.315964
0.161879
0.0915393
0.078297
0.0724574
0.0691131
0.0671931
0.0663626
0.0665113
0.067634
0.069798
0.0731349
0.0778393
0.0841699
0.0924484
0.103055
0.116414
0.132971
0.153164
0.177388
0.20597
0.239173
0.277202
0.320103
0.165963
0.0943669
0.0805382
0.074186
0.0703852
0.0680594
0.0668615
0.0666668
0.0674561
0.0692858
0.0722799
0.076631
0.0826018
0.0905266
0.100808
0.113908
0.130322
0.150549
0.175053
0.204228
0.238387
0.277755
0.322446
0.170821
0.0975507
0.0830334
0.0761259
0.0718523
0.0691184
0.0675583
0.0670272
0.0674877
0.0689802
0.071617
0.0755827
0.081138
0.0886221
0.0984532
0.11112
0.127165
0.147147
0.171607
0.201021
0.235782
0.27618
0.322371
0.176385
0.101052
0.0857451
0.0782401
0.0734792
0.0703385
0.0684252
0.0675689
0.0677089
0.0688652
0.0711329
0.0746834
0.0797678
0.0867219
0.0959685
0.108014
0.123435
0.142846
0.166866
0.196065
0.230935
0.271866
0.319102
0.182678
0.104865
0.0886547
0.0805045
0.0752416
0.0716976
0.0694443
0.068279
0.0681123
0.0689388
0.0708318
0.0739431
0.0785075
0.0848477
0.0933794
0.104612
0.119142
0.137628
0.160757
0.189198
0.223558
0.26435
0.311948
0.189866
0.109033
0.0917703
0.0829126
0.077128
0.0731856
0.0706096
0.069157
0.0687038
0.0692146
0.0707355
0.0733937
0.0774006
0.0830567
0.0907579
0.101001
0.114382
0.131583
0.153344
0.180424
0.213549
0.253372
0.300426
0.198321
0.113669
0.095136
0.0854786
0.0791423
0.0748057
0.0719286
0.0702172
0.0695055
0.0697231
0.070885
0.0730891
0.0765174
0.0814399
0.0882213
0.0973282
0.109335
0.124919
0.144849
0.169946
0.201046
0.238947
0.284357
0.208693
0.11899
0.0988434
0.0882408
0.081304
0.0765758
0.0734249
0.0714908
0.0705574
0.0705143
0.0713418
0.0731053
0.0759532
0.0801189
0.0859259
0.0937956
0.104258
0.117956
0.135647
0.15818
0.186468
0.221435
0.263961
0.222055
0.125367
0.103045
0.0912604
0.0836454
0.0785277
0.0751396
0.0730302
0.0719223
0.0716609
0.0721902
0.0735416
0.0758277
0.0792415
0.0840586
0.0906443
0.0994648
0.1111
0.126252
0.145748
0.170522
0.201579
0.239945
0.240212
0.133431
0.107962
0.094605
0.0861993
0.0807029
0.0771326
0.0749122
0.0736901
0.0732639
0.0735421
0.0745232
0.076285
0.0789788
0.0828296
0.0881401
0.0953004
0.104803
0.11726
0.133417
0.154159
0.180498
0.213537
0.266516
0.144243
0.113847
0.0982937
0.0889681
0.0831429
0.0794851
0.0772453
0.0759864
0.0754598
0.0755433
0.0762073
0.0774975
0.0795261
0.0824678
0.0865615
0.0921165
0.0995256
0.109283
0.122008
0.138465
0.159575
0.186411
0.308201
0.159553
0.120782
0.102149
0.0918653
0.0858777
0.082305
0.0801806
0.0789837
0.0784322
0.0783844
0.0787916
0.0796741
0.0811088
0.0832238
0.0861966
0.0902576
0.0956985
0.102887
0.11229
0.124496
0.14025
0.160467
0.38516
0.181783
0.127936
0.105485
0.0946439
0.0889318
0.0857493
0.0839326
0.0829196
0.0824267
0.0823146
0.082529
0.0830732
0.0839951
0.0853806
0.087351
0.0900636
0.0937157
0.0985537
0.104889
0.113118
0.123756
0.137463
0.582156
0.210854
0.131431
0.10669
0.0969161
0.0923991
0.0900804
0.0888164
0.0881218
0.0877721
0.0876612
0.0877459
0.0880223
0.0885156
0.0892747
0.0903699
0.091892
0.0939538
0.0966934
0.100282
0.104936
0.110937
0.118654
1.59644
0.215345
0.1203
0.103483
0.0985871
0.0966771
0.0957758
0.0953013
0.0950415
0.0949061
0.094854
0.0948677
0.0949447
0.0950926
0.0953272
0.0956719
0.0961569
0.0968189
0.0977014
0.0988566
0.100348
0.102254
0.104678
0.760078
0.668189
0.657374
0.723976
0.283966
0.300125
0.313325
0.329508
0.230152
0.241116
0.252827
0.267235
0.216083
0.22418
0.234173
0.247283
0.213909
0.221467
0.232181
0.246792
0.214554
0.222372
0.233903
0.256065
0.270215
0.294315
0.306661
0.299526
0.274763
0.285252
0.294645
0.302929
0.273517
0.282076
0.290282
0.299928
0.273573
0.282612
0.292321
0.303581
0.275505
0.285137
0.295807
0.307878
0.278522
0.288751
0.300142
0.312862
0.28206
0.293033
0.305256
0.318855
0.285739
0.297646
0.310917
0.325694
0.289337
0.302321
0.316804
0.332967
0.292781
0.306893
0.322642
0.340245
0.296114
0.311319
0.328271
0.347212
0.299457
0.315654
0.333662
0.353728
0.302972
0.320027
0.338896
0.359819
0.306833
0.324608
0.344144
0.365656
0.311204
0.329589
0.34963
0.37151
0.316218
0.335147
0.355594
0.377699
0.321943
0.341412
0.362238
0.384518
0.328359
0.348414
0.369669
0.392171
0.335299
0.356042
0.377841
0.4007
0.342442
0.364014
0.386518
0.409932
0.349292
0.371829
0.395231
0.419434
0.35519
0.378807
0.403286
0.428505
0.359334
0.384092
0.409762
0.436191
0.360854
0.386724
0.413608
0.441339
0.358941
0.385807
0.413805
0.442761
0.352679
0.38028
0.40919
0.439241
0.341343
0.369242
0.398653
0.429434
0.324523
0.352108
0.381413
0.412332
0.302245
0.328754
0.357161
0.387407
0.275099
0.299661
0.326233
0.354809
0.244321
0.266038
0.289771
0.315569
0.211778
0.229847
0.249801
0.271739
0.179769
0.193635
0.2091
0.226299
0.150596
0.160085
0.170755
0.182749
0.126017
0.131346
0.137367
0.144198
0.106952
0.108585
0.110424
0.112515
0.507828
0.594283
1.13446
2.02391
2.68033
5.0638
9.95262
10.7676
6.01934
4.46339
4.08192
3.17398
1.39899
0.889672
0.869546
0.869366
0.857414
0.88674
1.31709
0.35828
0.461598
0.845392
1.94883
3.16505
4.67397
10.4154
8.72853
5.65008
4.73319
4.75212
3.95496
2.09914
0.923313
0.896827
0.869421
0.839552
0.875108
1.44131
0.299248
0.378645
0.599135
0.836449
4.66806
6.06854
9.41799
7.31588
5.23426
4.76089
5.16714
4.02078
1.84857
1.13581
0.992007
0.914653
0.843527
0.862608
1.49707
0.275324
0.334792
0.446038
0.501628
5.6034
7.72992
9.24898
7.04604
5.44169
5.18691
5.71891
3.54878
1.44434
1.26547
1.11889
0.978617
0.844481
0.824649
1.43025
0.272781
0.312181
0.38519
0.465615
0.553776
7.74339
9.20141
7.29369
6.00288
6.34665
6.99997
2.15253
1.61666
1.43011
1.25673
1.03924
0.819518
0.754066
1.26192
0.285691
0.310011
0.355731
0.419942
0.480181
0.649141
6.69539
6.60805
6.1406
7.04013
6.21682
1.82346
1.71527
1.61374
1.38458
1.071
0.77064
0.661967
1.00113
0.301837
0.337128
0.361796
0.396857
0.439295
0.461344
0.562403
3.2042
4.31988
5.4424
1.97593
1.87968
1.89547
1.78422
1.46506
1.05217
0.693358
0.574534
0.688597
0.32711
0.396879
0.382033
0.397831
0.419795
0.433859
0.438436
0.493948
1.95425
1.75854
1.82957
1.95465
2.03609
1.87952
1.47165
0.947395
0.633293
0.505977
0.439278
0.324054
0.390421
0.448735
0.409075
0.416314
0.423957
0.432405
0.470896
0.703585
1.33748
1.67424
1.95449
2.03662
1.88884
1.33409
0.847318
0.646691
0.521766
0.338299
0.327331
0.379223
0.446474
0.484907
0.425502
0.428957
0.443731
0.507005
0.739849
1.18897
1.57042
1.81332
1.90137
1.74385
1.16379
0.852611
0.729135
0.66241
0.352336
0.331262
0.376302
0.436035
0.50543
0.53632
0.449297
0.472619
0.553016
0.773557
1.14616
1.45854
1.62648
1.83067
1.90068
1.38568
0.995727
0.883183
0.812673
0.393056
0.336739
0.379588
0.436568
0.506076
0.574206
0.604946
0.515933
0.605855
0.817203
1.1315
1.37326
1.52613
2.03026
2.77532
1.76035
0.947214
0.803282
0.813703
0.458538
0.344159
0.388258
0.446435
0.51943
0.598859
0.664034
0.678338
0.659708
0.841841
1.13617
1.36201
1.62239
3.15882
2.46091
1.51033
0.907384
0.608792
0.717078
0.567754
0.353208
0.400976
0.463751
0.543558
0.636268
0.727995
0.811774
0.910805
1.11026
1.26078
1.54836
2.89683
2.72974
2.1214
2.2093
0.790321
0.566409
0.673837
0.703892
0.363158
0.415971
0.485593
0.574975
0.682372
0.799113
0.9251
1.10653
1.38848
1.74875
2.22017
2.50762
2.34773
2.54762
3.72215
1.0085
0.568521
0.639748
0.740142
0.373205
0.431353
0.508388
0.608097
0.729875
0.866096
1.01297
1.20235
1.49779
1.89007
2.15011
2.22049
2.3356
3.13074
5.13367
2.30696
0.595778
0.617163
0.759323
0.38269
0.445527
0.528881
0.637163
0.77024
0.919597
1.07487
1.25414
1.51927
1.82847
1.98835
2.05402
2.37753
3.57405
5.54097
2.99361
0.583785
0.600493
0.777139
0.391226
0.457474
0.544954
0.658329
0.797654
0.953654
1.11055
1.27367
1.48068
1.69791
1.81113
1.90646
2.35008
3.69725
5.39916
2.61071
0.518239
0.564196
0.781573
0.398727
0.466833
0.555823
0.670232
0.810194
0.966574
1.1213
1.26667
1.41954
1.56538
1.65397
1.78482
2.31485
3.59036
5.13635
1.34366
0.485382
0.504364
0.799221
0.405372
0.473829
0.561845
0.673518
0.808997
0.960007
1.10868
1.2396
1.3545
1.45345
1.53519
1.71331
2.27801
3.44518
4.85769
0.860274
0.472534
0.495656
0.845772
0.41154
0.479122
0.564175
0.670149
0.797135
0.938051
1.07686
1.19575
1.28883
1.36404
1.4521
1.67249
2.25343
3.31892
4.58106
0.900134
0.4745
0.498719
0.871068
0.417717
0.483615
0.564405
0.662776
0.778681
0.906294
1.03223
1.13995
1.22161
1.28952
1.39101
1.64467
2.23242
3.22123
4.35524
1.25455
0.489722
0.511806
0.865855
0.424399
0.488278
0.564246
0.6542
0.757912
0.870724
0.982133
1.07872
1.15404
1.22297
1.33909
1.61622
2.20928
3.16115
4.13638
1.98225
0.547245
0.536099
0.837397
0.431994
0.493979
0.565255
0.646954
0.738654
0.83672
0.933355
1.0188
1.08941
1.16156
1.28914
1.58005
2.17888
3.12884
3.96329
1.95939
0.604331
0.567216
0.819914
0.440725
0.501342
0.568635
0.643016
0.723875
0.808433
0.891226
0.965923
1.0318
1.10587
1.23926
1.53267
2.12481
3.05345
3.70515
1.16402
0.584448
0.597432
0.834491
0.450557
0.510644
0.575095
0.643656
0.715516
0.788574
0.859255
0.924069
0.984739
1.05816
1.19067
1.47236
2.02661
2.85774
3.18301
0.792848
0.579113
0.627118
0.877847
0.46114
0.521734
0.584775
0.649376
0.714485
0.778485
0.839244
0.895456
0.950622
1.02086
1.1464
1.40298
1.88964
2.58374
2.53894
0.797446
0.597109
0.662212
0.917813
0.471777
0.533997
0.597204
0.6599
0.720721
0.778318
0.831583
0.880782
0.930585
0.995941
1.1107
1.33546
1.74492
2.3114
2.35536
0.942987
0.625333
0.703434
0.953019
0.481441
0.546343
0.611298
0.6742
0.733277
0.787209
0.835526
0.879541
0.924621
0.984492
1.08755
1.28237
1.62896
2.12178
2.40963
1.56994
0.69497
0.753321
0.971588
0.488809
0.55725
0.625393
0.690537
0.75038
0.803394
0.849371
0.890229
0.931677
0.986362
1.07867
1.24943
1.55283
2.01049
2.42597
2.03275
0.9223
0.803364
0.978938
0.492348
0.564831
0.637322
0.706524
0.769501
0.824273
0.870533
0.910417
0.949654
0.999939
1.08271
1.2331
1.4994
1.91235
2.35072
2.12514
1.05251
0.861779
0.956977
0.490654
0.566944
0.644526
0.719231
0.787418
0.846446
0.895551
0.936733
0.975342
1.02213
1.0959
1.2259
1.44996
1.79093
2.16889
2.03627
1.12614
0.950878
0.968926
0.482162
0.561693
0.64422
0.725328
0.800329
0.86578
0.920175
0.964853
1.00439
1.04864
1.11345
1.2216
1.39854
1.65582
1.94239
1.97563
1.26726
1.00749
1.14565
0.465472
0.54732
0.633743
0.721304
0.804038
0.87755
0.939336
0.989492
1.03188
1.07474
1.13079
1.21643
1.346
1.52406
1.73073
1.87351
1.26234
1.03648
1.33685
0.439666
0.522096
0.611037
0.70366
0.794203
0.87663
0.947392
1.00536
1.05293
1.09609
1.14453
1.20894
1.29445
1.40225
1.53579
1.72074
1.30395
1.0817
1.33174
0.404545
0.485032
0.574263
0.669629
0.766718
0.857822
0.938385
1.00601
1.06122
1.10776
1.15196
1.19944
1.25086
1.3068
1.38042
1.5217
1.44557
1.15426
1.2013
0.360911
0.436201
0.52263
0.617591
0.718242
0.816337
0.906169
0.984111
1.04905
1.10251
1.1476
1.18649
1.2185
1.2484
1.28528
1.36025
1.51573
1.3437
1.13295
0.31081
0.377624
0.457193
0.547816
0.647391
0.74909
0.845757
0.932829
1.00775
1.07018
1.12114
1.1617
1.19155
1.21348
1.23784
1.29784
1.49089
1.60029
1.13622
0.257458
0.312617
0.381367
0.463581
0.557129
0.657206
0.756184
0.848899
0.931619
1.0026
1.06181
1.11014
1.14844
1.1788
1.21044
1.28335
1.5582
1.9808
1.20504
0.204942
0.246103
0.301326
0.373429
0.457261
0.549876
0.645112
0.737832
0.823453
0.899037
0.963642
1.01799
1.06397
1.10533
1.15524
1.27849
1.84308
2.53826
1.73692
0.157154
0.183015
0.223731
0.291891
0.366741
0.448297
0.53435
0.620871
0.702921
0.776307
0.838447
0.888389
0.926282
0.953604
0.983068
1.13703
2.19828
2.7767
2.02049
0.116584
0.125791
0.147807
0.237136
0.310298
0.383076
0.459559
0.537659
0.612789
0.679965
0.734775
0.773144
0.789806
0.776108
0.721237
0.577402
1.66811
1.13102
2.31061
)
;

boundaryField
{
    leftWall
    {
        lowReCorrection 0;
        blending        stepwise;
        n               2;
        type            epsilonWallFunction;
        value           nonuniform List<scalar> 
50
(
0.023018
0.0282442
0.0341573
0.0350829
0.0345429
0.0342369
0.0332679
0.0314559
0.0291871
0.0346292
0.149673
0.207493
0.218629
0.220163
0.220439
0.2222
0.223357
0.22351
0.222387
0.219938
0.21621
0.210876
0.204203
0.196699
0.188887
0.181247
0.174182
0.168006
0.162936
0.159105
0.156565
0.155312
0.155296
0.156445
0.158671
0.161879
0.165963
0.170821
0.176385
0.182678
0.189866
0.198321
0.208693
0.222055
0.240212
0.266516
0.308201
0.38516
0.582156
1.59644
)
;
    }
    rightWall
    {
        lowReCorrection 0;
        blending        stepwise;
        n               2;
        type            epsilonWallFunction;
        value           nonuniform List<scalar> 
50
(
0.483908
0.625343
0.813132
0.941118
1.04198
1.12388
1.19114
1.25373
1.31709
1.44131
1.49707
1.43025
1.26192
1.00113
0.688597
0.439278
0.338299
0.352336
0.393056
0.458538
0.567754
0.703892
0.740142
0.759323
0.777139
0.781573
0.799221
0.845772
0.871068
0.865855
0.837397
0.819914
0.834491
0.877847
0.917813
0.953019
0.971588
0.978938
0.956977
0.968926
1.14565
1.33685
1.33174
1.2013
1.13295
1.13622
1.20504
1.73692
2.02049
2.31061
)
;
    }
    lowerWall
    {
        lowReCorrection 0;
        blending        stepwise;
        n               2;
        type            epsilonWallFunction;
        value           nonuniform List<scalar> 
62
(
0.023018
0.0611965
0.0998149
0.134705
0.160108
0.179103
0.19503
0.209822
0.224315
0.238793
0.253063
0.266474
0.278422
0.287872
0.292844
0.291875
0.281669
0.260341
0.228948
0.192386
0.159682
0.126218
0.103796
0.103796
0.112118
0.15796
0.20817
0.26033
0.314655
0.386494
0.544588
0.760078
0.668189
0.657374
0.723976
3.66317
2.07923
2.76829
3.64626
3.57901
2.61002
0.845529
0.731608
3.66317
2.03364
2.29885
2.71273
2.98046
3.24285
3.52741
3.86255
4.24767
4.66406
5.07503
5.45745
5.79685
6.03196
5.96311
5.27845
3.9762
2.34007
0.483908
)
;
    }
    atmosphere
    {
        type            inletOutlet;
        inletValue      uniform 0.1;
        value           nonuniform List<scalar> 
46
(
0.1
0.1
0.1
0.1
0.1
0.1
0.1
0.1
0.1
0.1
0.1
0.1
0.1
0.1
0.1
0.1
0.1
0.1
0.1
0.1
0.1
0.1
0.1
0.1
0.1
0.1
0.1
0.1
0.1
0.1
0.237136
0.310298
0.383076
0.459559
0.537659
0.612789
0.679965
0.734775
0.773144
0.789806
0.776108
0.721237
0.1
0.1
0.1
2.31061
)
;
    }
    defaultFaces
    {
        type            empty;
    }
}


// ************************************************************************* //
