/*--------------------------------*- C++ -*----------------------------------*\
| =========                 |                                                 |
| \\      /  F ield         | OpenFOAM: The Open Source CFD Toolbox           |
|  \\    /   O peration     | Version:  v2012                                 |
|   \\  /    A nd           | Website:  www.openfoam.com                      |
|    \\/     M anipulation  |                                                 |
\*---------------------------------------------------------------------------*/
FoamFile
{
    version     2.0;
    format      ascii;
    class       volScalarField;
    location    "0.65";
    object      k;
}
// * * * * * * * * * * * * * * * * * * * * * * * * * * * * * * * * * * * * * //

dimensions      [0 2 -2 0 0 0 0];


internalField   nonuniform List<scalar> 
2268
(
0.00377935
0.00590418
0.00816652
0.00996869
0.0111827
0.0120492
0.0127522
0.0133882
0.0139979
0.0145956
0.0151747
0.0157099
0.0161804
0.016548
0.0167416
0.0167051
0.0163123
0.0154764
0.0142042
0.0126518
0.0111728
0.00957308
0.00838212
0.00582172
0.0113654
0.0162427
0.019866
0.0226361
0.024814
0.0266496
0.0282976
0.0298352
0.031295
0.0326762
0.0339504
0.0350814
0.0360128
0.036638
0.036758
0.0361694
0.0347417
0.032463
0.0294302
0.0264068
0.0219544
0.0145389
0.00661011
0.0137269
0.0192143
0.0236053
0.0271525
0.0300724
0.0325928
0.0348661
0.0369756
0.0389599
0.0408234
0.042541
0.0440753
0.0453662
0.0463053
0.0466961
0.0463591
0.0451431
0.0429785
0.0398528
0.0360873
0.0305505
0.0182626
0.0067305
0.0146864
0.0204371
0.0252942
0.0294214
0.0329484
0.0360499
0.0388553
0.0414448
0.043863
0.0461217
0.0482012
0.0500681
0.0516629
0.0528766
0.0535464
0.0535125
0.0526311
0.0507969
0.0479012
0.0438301
0.0376788
0.02192
0.00665003
0.0148052
0.0206494
0.0258478
0.0304924
0.0345949
0.0382492
0.0415531
0.0445847
0.0474005
0.0500148
0.0524177
0.0545821
0.0564525
0.0579293
0.0588755
0.0591556
0.0586429
0.0572166
0.0546885
0.0506416
0.0439086
0.0254431
0.00660351
0.014305
0.0201651
0.0256933
0.0308532
0.035516
0.0396957
0.0434663
0.0469099
0.0500883
0.0530277
0.0557264
0.0581649
0.0602944
0.062026
0.0632448
0.0638415
0.0637104
0.0627315
0.0606613
0.0568999
0.0498403
0.0288942
0.00647353
0.0134791
0.0192789
0.0251549
0.0308263
0.0360134
0.0406702
0.0448614
0.0486735
0.0521816
0.0554179
0.0583875
0.0610795
0.063453
0.0654311
0.0669184
0.0678313
0.0680861
0.0675762
0.0660381
0.0627839
0.0559144
0.0332403
0.00623373
0.0125129
0.0182828
0.0245268
0.0306695
0.0363006
0.041352
0.0458936
0.0500209
0.0538208
0.0573237
0.0605395
0.0634652
0.0660687
0.0682843
0.0700348
0.0712617
0.0719003
0.071868
0.0709178
0.068369
0.0625182
0.0420568
0.0867175
0.0600541
0.0659991
0.0736899
0.0784806
0.0831191
0.0879071
0.0933824
0.0994474
0.105732
0.111738
0.117316
0.122239
0.125511
0.124398
0.114502
0.0947456
0.066426
0.028822
0.105095
0.104626
0.0814172
0.0878164
0.107592
0.113655
0.124793
0.138218
0.153325
0.168944
0.183476
0.195951
0.20563
0.212745
0.214135
0.200881
0.168847
0.119972
0.0486038
0.12581
0.123622
0.123137
0.115474
0.147288
0.127932
0.142465
0.163386
0.179583
0.195495
0.211921
0.226843
0.23788
0.244377
0.243903
0.228389
0.192929
0.138603
0.058116
0.152287
0.211178
0.328413
0.479174
1.18743
0.880658
0.537352
0.241329
0.187973
0.204526
0.226283
0.240449
0.25028
0.25467
0.252014
0.236119
0.201833
0.148053
0.0642228
0.151128
0.279714
0.306012
0.326281
0.525405
0.907481
0.711881
0.493728
0.344909
0.269638
0.238816
0.245807
0.253825
0.254301
0.249684
0.234769
0.203672
0.152948
0.0688243
0.132089
0.198702
0.204635
0.211945
0.266014
0.441804
0.712257
0.579507
0.404765
0.328189
0.295162
0.26371
0.251335
0.247792
0.242281
0.229305
0.202195
0.155274
0.0724037
0.0665309
0.143546
0.183859
0.193215
0.197987
0.242165
0.436398
0.653567
0.459258
0.369801
0.333659
0.278381
0.241322
0.238027
0.232997
0.222535
0.199471
0.15675
0.0752581
0.0553427
0.100562
0.133967
0.156786
0.164854
0.203206
0.343248
0.675906
0.502682
0.403779
0.370322
0.310276
0.236335
0.227967
0.223829
0.216167
0.196611
0.15804
0.0778468
0.00592631
0.0110531
0.0170116
0.0238217
0.0305803
0.0367295
0.0422295
0.047171
0.0516684
0.0558203
0.0596657
0.0632245
0.0664876
0.0694303
0.0720035
0.0741536
0.0758648
0.0770904
0.0777971
0.0777736
0.0764134
0.0729245
0.0655715
0.00662946
0.0112735
0.017116
0.0241294
0.0312219
0.0374588
0.0431052
0.048263
0.0530192
0.0574793
0.0616829
0.0655469
0.0690531
0.0722662
0.0751967
0.0778424
0.0801594
0.0820667
0.0836279
0.0846922
0.0848031
0.0839621
0.0827572
0.0176538
0.0292682
0.0335979
0.0363606
0.0361285
0.0390895
0.0438431
0.048666
0.0532602
0.0576892
0.0621558
0.0663672
0.0701833
0.0737613
0.0771345
0.0802016
0.0828102
0.0851234
0.087291
0.0890456
0.0899505
0.0902384
0.0904811
0.0219128
0.0398328
0.0486049
0.0535798
0.0560435
0.0592264
0.0630625
0.0671507
0.0712623
0.0744655
0.0730026
0.0690254
0.0708175
0.0740234
0.0773833
0.0806732
0.083681
0.0867154
0.0894448
0.091382
0.0924682
0.0931703
0.093755
0.0227045
0.0452929
0.0564546
0.0633684
0.0679656
0.0718953
0.0756315
0.0793263
0.0830321
0.0863368
0.0881058
0.0889558
0.0910268
0.0935319
0.0939144
0.0862192
0.0850867
0.0871103
0.0896287
0.0914884
0.0928461
0.0941077
0.0949662
0.0228316
0.0476675
0.0604568
0.0689237
0.0751263
0.0801263
0.0844628
0.0884402
0.0922032
0.0956231
0.0982939
0.100352
0.102674
0.105332
0.107047
0.106906
0.10725
0.108584
0.110071
0.109478
0.100704
0.0955974
0.0956186
0.0228685
0.0488532
0.0624559
0.0719484
0.0792947
0.0853491
0.0905492
0.0951822
0.0994335
0.103303
0.106636
0.109432
0.112046
0.114652
0.116901
0.118603
0.120448
0.122855
0.125233
0.126045
0.12483
0.12561
0.12875
0.0230037
0.0493458
0.0634257
0.0735281
0.0816129
0.0884481
0.0944353
0.099806
0.104709
0.109202
0.113227
0.116763
0.119951
0.12294
0.125712
0.128251
0.130777
0.133438
0.136073
0.138312
0.140463
0.143876
0.147832
0.0230923
0.0495329
0.0638019
0.0742081
0.0827204
0.090071
0.0966321
0.102619
0.108148
0.113265
0.117965
0.122229
0.126112
0.129709
0.13307
0.136224
0.139254
0.142231
0.14517
0.148084
0.151201
0.154873
0.158541
0.0231094
0.049497
0.0637569
0.0742583
0.082975
0.0906231
0.0975559
0.103974
0.109988
0.11564
0.120925
0.125834
0.130385
0.134622
0.138586
0.142302
0.145809
0.149164
0.152438
0.155732
0.159185
0.162878
0.166517
0.0230365
0.0492359
0.0633593
0.0738198
0.0825872
0.090368
0.097505
0.104189
0.110527
0.116565
0.122308
0.127742
0.132861
0.137678
0.142205
0.146455
0.150449
0.154234
0.157896
0.161541
0.165277
0.169162
0.173114
0.022869
0.0487408
0.0626501
0.0729843
0.081699
0.0894935
0.0967048
0.10352
0.110043
0.116327
0.122382
0.128199
0.133762
0.139061
0.144088
0.148837
0.153322
0.157583
0.161698
0.165768
0.169899
0.174182
0.178655
0.022611
0.0480183
0.0616738
0.07183
0.080424
0.0881481
0.0953367
0.102176
0.108774
0.115185
0.12143
0.127502
0.133386
0.13906
0.144506
0.14971
0.154675
0.159434
0.164053
0.168627
0.173271
0.178105
0.183248
0.022242
0.0471334
0.0604874
0.070435
0.0788638
0.0864594
0.0935548
0.100339
0.106922
0.113367
0.1197
0.125924
0.132024
0.13798
0.143767
0.14937
0.154785
0.160038
0.165184
0.170315
0.175551
0.181036
0.186939
0.0217749
0.0461239
0.0591695
0.0688777
0.0771138
0.0845415
0.0914938
0.0981623
0.104664
0.111068
0.11741
0.123701
0.129933
0.13609
0.142149
0.148094
0.153919
0.159643
0.165316
0.171024
0.176892
0.183082
0.189793
0.0212423
0.0450327
0.0577766
0.0672445
0.0752623
0.0824969
0.0892717
0.0957825
0.102153
0.10846
0.114749
0.12104
0.127337
0.133627
0.139896
0.146129
0.15232
0.158484
0.164666
0.170949
0.17746
0.184371
0.191906
0.0206798
0.0439126
0.0563638
0.065599
0.073397
0.0804157
0.0869907
0.0933146
0.0995177
0.105686
0.111876
0.118117
0.124423
0.130792
0.137217
0.143688
0.150202
0.156771
0.163437
0.170278
0.177422
0.185048
0.193396
0.0201213
0.0428163
0.0549884
0.0639988
0.0715812
0.0783823
0.0847375
0.0908552
0.096867
0.102868
0.108923
0.115075
0.121348
0.127752
0.134288
0.140954
0.147749
0.154688
0.161808
0.169184
0.17694
0.185259
0.194386
0.0195972
0.0417924
0.0537031
0.0624981
0.0698693
0.0764543
0.0825884
0.0884833
0.0942873
0.1001
0.105997
0.112031
0.118239
0.124642
0.131251
0.138073
0.145114
0.152388
0.159933
0.167817
0.176158
0.185136
0.194995
0.0191324
0.0408825
0.0525538
0.0611438
0.0683085
0.0746792
0.0805924
0.086264
0.0918471
0.0974573
0.103179
0.109074
0.115192
0.121565
0.128216
0.135162
0.142415
0.149993
0.157932
0.166295
0.175193
0.184792
0.195323
0.0187459
0.0401198
0.051577
0.0599733
0.0669366
0.0730949
0.0787875
0.0842352
0.0895971
0.0949952
0.100527
0.106268
0.112276
0.118596
0.125264
0.132304
0.13974
0.147592
0.155896
0.16471
0.174132
0.184312
0.195457
0.0184502
0.0395278
0.0507993
0.0590141
0.0657811
0.0717287
0.077201
0.0824242
0.0875638
0.0927487
0.0980837
0.103655
0.109538
0.115785
0.122445
0.129555
0.137144
0.145242
0.153883
0.163118
0.173033
0.183755
0.195459
0.0182519
0.0391206
0.0502369
0.0582833
0.0648593
0.070598
0.0758499
0.0808475
0.0857631
0.0907323
0.0958675
0.101264
0.107004
0.113159
0.11979
0.126943
0.134658
0.142972
0.151919
0.161546
0.171924
0.183155
0.195374
0.0181521
0.0389033
0.0498964
0.0577879
0.0641787
0.0697103
0.0747414
0.0795121
0.084201
0.0889508
0.0938809
0.0990948
0.104684
0.110729
0.117304
0.124473
0.132284
0.14078
0.150001
0.159988
0.170798
0.182507
0.195211
0.0181479
0.038873
0.0497753
0.057526
0.0637377
0.0690643
0.0738746
0.0784164
0.0828753
0.0874006
0.0921185
0.09714
0.102565
0.108486
0.114984
0.122134
0.130003
0.138645
0.148099
0.158407
0.169615
0.181776
0.194945
0.0182337
0.0390206
0.0498638
0.0574884
0.063528
0.0686524
0.0732418
0.0775526
0.0817774
0.0860717
0.0905681
0.0953845
0.100629
0.106402
0.112798
0.119901
0.127787
0.13652
0.146157
0.156739
0.168302
0.180883
0.194504
0.0184021
0.0393326
0.0501471
0.0576604
0.0635357
0.0684616
0.0728308
0.0769089
0.0808949
0.0849505
0.089214
0.0938093
0.0988517
0.10445
0.110708
0.117723
0.125581
0.134356
0.14411
0.154894
0.166756
0.179713
0.193767
0.0186448
0.0397927
0.0506072
0.0580243
0.063744
0.0684764
0.0726273
0.0764712
0.0802139
0.0840223
0.0880398
0.0923956
0.0972107
0.102601
0.10868
0.115554
0.123323
0.132074
0.141877
0.15279
0.164858
0.178121
0.192572
0.0189522
0.0403842
0.0512259
0.0585621
0.0641363
0.0686813
0.0726169
0.0762262
0.0797213
0.083274
0.0870316
0.0911274
0.0956865
0.100831
0.10668
0.113352
0.120959
0.1296
0.13936
0.150309
0.162498
0.175966
0.19072
0.0193153
0.0410928
0.0519878
0.0592588
0.0646982
0.0690633
0.0727878
0.0761633
0.0794076
0.0826964
0.0861801
0.0899946
0.0942678
0.0991248
0.104691
0.111091
0.118448
0.126877
0.13648
0.147341
0.159529
0.173091
0.188042
0.0197276
0.0419098
0.0528842
0.0601058
0.0654214
0.0696146
0.0731333
0.0762771
0.0792686
0.0822866
0.0854834
0.0889961
0.0929533
0.097481
0.102707
0.108761
0.115775
0.123878
0.133188
0.143812
0.155838
0.169336
0.184339
0.0201895
0.0428372
0.0539173
0.0611047
0.066307
0.0703359
0.0736541
0.0765689
0.0793071
0.0820492
0.0849483
0.0881409
0.0917545
0.0959133
0.100744
0.106378
0.112953
0.120607
0.129477
0.13969
0.151363
0.164593
0.179444
0.0207118
0.043893
0.0551057
0.0622722
0.0673689
0.0712391
0.0743609
0.0770494
0.0795347
0.0819979
0.0845914
0.0874495
0.0906962
0.0944519
0.0988386
0.103985
0.110028
0.117113
0.125389
0.135007
0.146109
0.158827
0.173265
0.0213192
0.0451181
0.0564915
0.0636459
0.0686391
0.0723507
0.0752766
0.0777399
0.0799729
0.0821563
0.0844397
0.0869536
0.0898169
0.0931431
0.0970466
0.101648
0.10708
0.113486
0.121024
0.129858
0.14016
0.152095
0.165813
0.0220544
0.0465864
0.0581492
0.0652915
0.0701718
0.0737151
0.0764386
0.0786737
0.0806541
0.082558
0.0845307
0.0866966
0.0891674
0.0920478
0.0954418
0.0994586
0.104219
0.109859
0.116533
0.124416
0.133695
0.144568
0.157228
0.022986
0.0484211
0.0602
0.067311
0.0720486
0.0753972
0.0779001
0.0798973
0.081622
0.0832476
0.0849122
0.086732
0.0888096
0.0912391
0.094112
0.0975228
0.101576
0.106393
0.112116
0.118914
0.12698
0.136531
0.147799
0.0242248
0.0508237
0.0628306
0.069852
0.0743802
0.0774814
0.0797291
0.0814696
0.0829318
0.0842802
0.0856424
0.0871239
0.0888158
0.0908002
0.0931549
0.0959583
0.0992961
0.103268
0.107996
0.113629
0.120352
0.12838
0.137962
0.0259676
0.0541279
0.0663181
0.0731102
0.0773024
0.0800669
0.0820047
0.0834598
0.0846489
0.0857215
0.0867905
0.0879468
0.0892681
0.0908232
0.0926755
0.0948873
0.0975249
0.100665
0.104401
0.108854
0.11418
0.120573
0.128273
0.028618
0.0589025
0.0710512
0.0773154
0.0809559
0.0832528
0.0848086
0.0859437
0.0868484
0.0876489
0.0884374
0.0892871
0.0902598
0.0914097
0.092786
0.0944356
0.0964063
0.0987523
0.10154
0.104855
0.108814
0.113571
0.119325
0.0332174
0.0661507
0.0775067
0.0826669
0.0854412
0.0871136
0.088214
0.0889998
0.0896153
0.0901531
0.0906793
0.0912464
0.0918983
0.0926738
0.093608
0.0947333
0.0960819
0.0976884
0.0995941
0.101853
0.104539
0.107755
0.11164
0.043786
0.0776028
0.0860204
0.0891702
0.0907443
0.091672
0.0922784
0.0927102
0.0930478
0.0933427
0.0936323
0.0939463
0.0943103
0.0947473
0.0952781
0.095922
0.0966975
0.0976237
0.0987219
0.10002
0.101555
0.10338
0.105573
0.086134
0.0947995
0.0958648
0.0963548
0.0966749
0.0968958
0.0970534
0.0971717
0.0972675
0.0973537
0.0974404
0.0975364
0.0976497
0.0977875
0.0979569
0.0981644
0.0984163
0.0987187
0.0990779
0.0995016
0.0999999
0.100587
0.101282
0.0521956
0.048032
0.0476662
0.0510492
0.0824862
0.0829419
0.0843539
0.0870389
0.0910774
0.0917925
0.0930025
0.0948903
0.094356
0.0950043
0.0961097
0.0978377
0.0956771
0.0965113
0.0979965
0.100208
0.0961344
0.096939
0.0985266
0.101834
0.133105
0.135979
0.134584
0.126751
0.149334
0.149447
0.148545
0.14668
0.160143
0.160588
0.160474
0.160358
0.168695
0.169928
0.171028
0.172225
0.175943
0.177831
0.179754
0.18177
0.18213
0.184545
0.187063
0.189676
0.187374
0.190271
0.19331
0.196466
0.191744
0.195124
0.198683
0.202398
0.195302
0.199178
0.203273
0.207571
0.198126
0.2025
0.207136
0.212023
0.200309
0.205165
0.21032
0.215772
0.201952
0.207255
0.212886
0.218847
0.203154
0.208853
0.214899
0.221293
0.204006
0.210045
0.216435
0.223175
0.204593
0.210914
0.217577
0.224579
0.204989
0.211541
0.218416
0.225605
0.205249
0.211995
0.219035
0.226358
0.205406
0.212322
0.219501
0.226925
0.20545
0.212529
0.219841
0.22736
0.205324
0.212573
0.220028
0.227657
0.204915
0.212347
0.219968
0.227739
0.204054
0.211682
0.219494
0.227445
0.202527
0.210355
0.218374
0.226536
0.200102
0.208109
0.21633
0.224715
0.196569
0.204714
0.213101
0.22168
0.191707
0.199912
0.208401
0.217127
0.185363
0.193503
0.20198
0.21075
0.177488
0.185399
0.193699
0.202355
0.168178
0.175657
0.18357
0.191898
0.157699
0.164519
0.171803
0.179546
0.146504
0.152442
0.158845
0.165724
0.135216
0.140082
0.145383
0.15114
0.124546
0.128231
0.13228
0.136727
0.115165
0.117662
0.120423
0.123488
0.107545
0.108941
0.110491
0.112224
0.101896
0.102326
0.1028
0.103332
0.0740833
0.0933483
0.111561
0.138258
0.155611
0.222463
0.435425
0.701237
0.527462
0.435177
0.408858
0.359185
0.253498
0.217574
0.21502
0.210401
0.193956
0.159657
0.080386
0.0942703
0.102725
0.114147
0.13781
0.174212
0.229812
0.50695
0.614472
0.494064
0.433988
0.432175
0.399041
0.305631
0.218309
0.215838
0.208938
0.19241
0.161456
0.0851683
0.099323
0.106004
0.117765
0.123605
0.235881
0.3062
0.506727
0.534563
0.447218
0.41314
0.435975
0.395456
0.296499
0.243213
0.22628
0.212501
0.191369
0.160025
0.0871951
0.101669
0.107774
0.116904
0.121913
0.28085
0.379827
0.513078
0.488418
0.423377
0.411346
0.448592
0.372879
0.279022
0.261335
0.240821
0.217914
0.188104
0.153209
0.0842204
0.103992
0.108712
0.116708
0.12441
0.130636
0.386592
0.500026
0.464041
0.421582
0.450614
0.501417
0.328277
0.304067
0.280944
0.255413
0.221618
0.179342
0.14067
0.0770571
0.106816
0.110345
0.116799
0.124289
0.131086
0.140057
0.396657
0.421431
0.420482
0.488357
0.48972
0.328781
0.318057
0.300164
0.266223
0.220151
0.165655
0.123547
0.0655951
0.112267
0.115354
0.120131
0.125664
0.131446
0.136065
0.142665
0.27084
0.342702
0.442482
0.341766
0.337903
0.334468
0.313458
0.268866
0.207399
0.141705
0.103577
0.0508261
0.144991
0.145379
0.125011
0.128794
0.133012
0.136505
0.139483
0.147913
0.246182
0.306911
0.329839
0.342085
0.342056
0.315028
0.257411
0.174061
0.114016
0.0785577
0.0378676
0.161628
0.167455
0.159919
0.132953
0.135216
0.138016
0.141417
0.150214
0.186474
0.274551
0.311674
0.335071
0.334231
0.305331
0.218016
0.134729
0.0951254
0.0668972
0.0323368
0.174935
0.180742
0.183114
0.166253
0.138955
0.140997
0.145597
0.15826
0.195543
0.254617
0.295578
0.315283
0.315304
0.274145
0.171638
0.115519
0.0925974
0.0777724
0.03385
0.185424
0.191516
0.196609
0.196283
0.179205
0.146084
0.151962
0.166791
0.200189
0.247018
0.279956
0.293849
0.302349
0.269161
0.177001
0.122724
0.106799
0.0942478
0.0368142
0.194195
0.200972
0.207654
0.211739
0.208616
0.192674
0.159777
0.17552
0.205994
0.244117
0.269591
0.283277
0.316839
0.335845
0.206154
0.129723
0.113959
0.101823
0.0411696
0.201895
0.209785
0.217907
0.224713
0.226803
0.220038
0.20187
0.184611
0.209119
0.244729
0.268292
0.29074
0.37285
0.293884
0.193661
0.142908
0.11209
0.105782
0.0474219
0.208824
0.218195
0.228029
0.237188
0.24321
0.242787
0.236531
0.232825
0.248924
0.258719
0.283406
0.388156
0.339966
0.268235
0.26153
0.132517
0.108531
0.104557
0.0536498
0.215064
0.22617
0.238048
0.249722
0.259172
0.26383
0.264462
0.271128
0.293081
0.320902
0.355109
0.360377
0.319257
0.322501
0.405394
0.149688
0.109989
0.103465
0.0551746
0.220597
0.233521
0.247589
0.261905
0.27457
0.283047
0.287081
0.294279
0.315282
0.3457
0.35753
0.345056
0.337163
0.397701
0.532613
0.284199
0.110806
0.101932
0.055989
0.225375
0.240022
0.256149
0.272917
0.28843
0.299895
0.305886
0.311688
0.328179
0.348971
0.351677
0.343238
0.362872
0.461627
0.588379
0.358007
0.108059
0.10047
0.0565318
0.229364
0.245491
0.263327
0.282068
0.299833
0.313665
0.321254
0.325532
0.334639
0.345011
0.34435
0.343321
0.381091
0.494101
0.595748
0.322026
0.10572
0.0965709
0.0568256
0.232566
0.249842
0.268914
0.289001
0.308293
0.323862
0.33291
0.336263
0.338865
0.341136
0.33908
0.345132
0.394714
0.500885
0.582152
0.185701
0.102574
0.0921132
0.0583944
0.23503
0.253093
0.272898
0.293683
0.313751
0.330357
0.340558
0.343668
0.342489
0.339752
0.337872
0.350872
0.404703
0.498633
0.563982
0.138264
0.100851
0.0913008
0.0605302
0.236844
0.255357
0.275435
0.296331
0.316488
0.333431
0.344334
0.34775
0.345195
0.340525
0.340194
0.358455
0.41287
0.494565
0.546834
0.142821
0.100765
0.0911314
0.0613178
0.238136
0.256818
0.276798
0.29734
0.317034
0.333708
0.34483
0.348758
0.34638
0.341967
0.343854
0.365656
0.419135
0.491806
0.535943
0.183764
0.1022
0.0918334
0.0607203
0.239047
0.257703
0.277332
0.297208
0.316062
0.332028
0.342947
0.347323
0.34583
0.342742
0.34685
0.37083
0.42352
0.492093
0.527807
0.277963
0.107292
0.0940338
0.0593974
0.239713
0.258243
0.277396
0.296452
0.314276
0.329285
0.33971
0.344342
0.343846
0.342278
0.348099
0.3731
0.425345
0.492935
0.517343
0.280766
0.115705
0.0981133
0.0589485
0.240236
0.258635
0.277309
0.295541
0.312312
0.326296
0.336081
0.340774
0.341087
0.340729
0.347422
0.372006
0.42225
0.485557
0.489289
0.183856
0.116519
0.103081
0.0601301
0.240655
0.259007
0.277307
0.294837
0.310676
0.323716
0.332852
0.337473
0.338327
0.338686
0.345274
0.367589
0.412234
0.463855
0.435348
0.141124
0.116298
0.107178
0.0621946
0.240927
0.259381
0.277501
0.294553
0.309692
0.321985
0.330581
0.335093
0.33627
0.336908
0.342582
0.361071
0.397287
0.435296
0.374252
0.143983
0.118168
0.110814
0.0639979
0.240905
0.259654
0.277848
0.294724
0.309481
0.321315
0.329572
0.334038
0.33544
0.33612
0.340558
0.354867
0.382776
0.411912
0.372431
0.164204
0.120606
0.114174
0.0656162
0.240344
0.25959
0.278144
0.295195
0.309947
0.32168
0.329879
0.334457
0.336119
0.336841
0.340269
0.351406
0.374059
0.402123
0.398304
0.260532
0.125362
0.117519
0.0659601
0.238916
0.25883
0.278021
0.295611
0.310774
0.322816
0.331303
0.336237
0.338306
0.339242
0.342172
0.351594
0.372104
0.402726
0.418828
0.333505
0.144585
0.121255
0.0658632
0.236232
0.256911
0.276971
0.295445
0.311436
0.324222
0.333391
0.338993
0.341697
0.343078
0.345949
0.354485
0.37349
0.403766
0.425726
0.356825
0.170431
0.126222
0.0646151
0.231935
0.253311
0.274385
0.294019
0.311218
0.325179
0.335448
0.342067
0.345665
0.347699
0.350706
0.358347
0.374601
0.399714
0.417862
0.357909
0.186358
0.132771
0.0658212
0.225666
0.247575
0.26961
0.290566
0.30926
0.324775
0.336555
0.344544
0.349285
0.352131
0.355272
0.361628
0.373844
0.391316
0.402685
0.365537
0.201368
0.137621
0.0750102
0.217141
0.239317
0.262041
0.284296
0.304626
0.321961
0.335598
0.345294
0.351458
0.355246
0.358441
0.36315
0.370689
0.380044
0.384399
0.361037
0.187854
0.138652
0.0811549
0.206213
0.2282
0.25125
0.274465
0.296387
0.315641
0.331354
0.343105
0.351036
0.355963
0.359222
0.362141
0.36494
0.366508
0.363624
0.347695
0.194081
0.141162
0.0796231
0.192963
0.214116
0.236936
0.260557
0.283746
0.304783
0.322616
0.336614
0.346643
0.353096
0.35676
0.358218
0.357324
0.353286
0.344841
0.329265
0.239001
0.146091
0.0740645
0.177767
0.197275
0.219115
0.242403
0.266187
0.288575
0.308302
0.32451
0.336798
0.345197
0.349959
0.351218
0.348798
0.342243
0.330653
0.312974
0.279016
0.160192
0.0712067
0.161355
0.178433
0.198326
0.220383
0.243757
0.266744
0.287781
0.305821
0.320206
0.330673
0.337183
0.339783
0.337854
0.330959
0.319007
0.302199
0.279692
0.189716
0.0717761
0.144749
0.158673
0.175728
0.195682
0.21761
0.240114
0.2615
0.280583
0.29648
0.308672
0.316936
0.321191
0.321009
0.315766
0.304749
0.288495
0.273059
0.210737
0.0752283
0.129127
0.139425
0.153104
0.170728
0.19052
0.211392
0.231918
0.250908
0.267297
0.280328
0.289574
0.294805
0.295678
0.291584
0.281499
0.266445
0.259572
0.23868
0.0950793
0.115491
0.121943
0.132106
0.14913
0.167166
0.185787
0.204435
0.222167
0.237849
0.250488
0.259363
0.263952
0.263646
0.25737
0.243613
0.228943
0.272373
0.240676
0.104478
0.104358
0.106664
0.112218
0.134993
0.15308
0.170033
0.186819
0.202953
0.217386
0.228995
0.236784
0.239807
0.236823
0.225725
0.202957
0.155988
0.203927
0.168718
0.115181
)
;

boundaryField
{
    leftWall
    {
        type            kqRWallFunction;
        value           nonuniform List<scalar> 
50
(
0.00377935
0.00582172
0.00661011
0.0067305
0.00665003
0.00660351
0.00647353
0.00623373
0.00592631
0.00662946
0.0176538
0.0219128
0.0227045
0.0228316
0.0228685
0.0230037
0.0230923
0.0231094
0.0230365
0.022869
0.022611
0.022242
0.0217749
0.0212423
0.0206798
0.0201213
0.0195972
0.0191324
0.0187459
0.0184502
0.0182519
0.0181521
0.0181479
0.0182337
0.0184021
0.0186448
0.0189522
0.0193153
0.0197276
0.0201895
0.0207118
0.0213192
0.0220544
0.022986
0.0242248
0.0259676
0.028618
0.0332174
0.043786
0.086134
)
;
    }
    rightWall
    {
        type            kqRWallFunction;
        value           nonuniform List<scalar> 
50
(
0.028822
0.0486038
0.058116
0.0642228
0.0688243
0.0724037
0.0752581
0.0778468
0.080386
0.0851683
0.0871951
0.0842204
0.0770571
0.0655951
0.0508261
0.0378676
0.0323368
0.03385
0.0368142
0.0411696
0.0474219
0.0536498
0.0551746
0.055989
0.0565318
0.0568256
0.0583944
0.0605302
0.0613178
0.0607203
0.0593974
0.0589485
0.0601301
0.0621946
0.0639979
0.0656162
0.0659601
0.0658632
0.0646151
0.0658212
0.0750102
0.0811549
0.0796231
0.0740645
0.0712067
0.0717761
0.0752283
0.0950793
0.104478
0.115181
)
;
    }
    lowerWall
    {
        type            kqRWallFunction;
        value           nonuniform List<scalar> 
62
(
0.00377935
0.00590418
0.00816652
0.00996869
0.0111827
0.0120492
0.0127522
0.0133882
0.0139979
0.0145956
0.0151747
0.0157099
0.0161804
0.016548
0.0167416
0.0167051
0.0163123
0.0154764
0.0142042
0.0126518
0.0111728
0.00957308
0.00838212
0.00838212
0.0145389
0.0182626
0.02192
0.0254431
0.0288942
0.0332403
0.0420568
0.0521956
0.048032
0.0476662
0.0510492
0.0867175
0.105095
0.12581
0.152287
0.151128
0.132089
0.0665309
0.0553427
0.0867175
0.0600541
0.0659991
0.0736899
0.0784806
0.0831191
0.0879071
0.0933824
0.0994474
0.105732
0.111738
0.117316
0.122239
0.125511
0.124398
0.114502
0.0947456
0.066426
0.028822
)
;
    }
    atmosphere
    {
        type            inletOutlet;
        inletValue      uniform 0.1;
        value           nonuniform List<scalar> 
46
(
0.1
0.1
0.1
0.1
0.1
0.1
0.1
0.1
0.1
0.1
0.1
0.1
0.1
0.1
0.1
0.1
0.1
0.1
0.1
0.1
0.1
0.1
0.1
0.1
0.1
0.1
0.1
0.1
0.1
0.1
0.134993
0.15308
0.170033
0.186819
0.202953
0.217386
0.228995
0.236784
0.239807
0.236823
0.225725
0.202957
0.1
0.1
0.1
0.115181
)
;
    }
    defaultFaces
    {
        type            empty;
    }
}


// ************************************************************************* //
