/*--------------------------------*- C++ -*----------------------------------*\
| =========                 |                                                 |
| \\      /  F ield         | OpenFOAM: The Open Source CFD Toolbox           |
|  \\    /   O peration     | Version:  v2012                                 |
|   \\  /    A nd           | Website:  www.openfoam.com                      |
|    \\/     M anipulation  |                                                 |
\*---------------------------------------------------------------------------*/
FoamFile
{
    version     2.0;
    format      ascii;
    class       volScalarField;
    location    "0.65";
    object      nut;
}
// * * * * * * * * * * * * * * * * * * * * * * * * * * * * * * * * * * * * * //

dimensions      [0 2 -1 0 0 0 0];


internalField   nonuniform List<scalar> 
2268
(
5.58483e-05
5.12668e-05
6.01341e-05
6.63947e-05
7.02955e-05
7.29551e-05
7.50429e-05
7.68836e-05
7.86155e-05
8.02909e-05
8.18947e-05
8.33555e-05
8.46284e-05
8.56113e-05
8.61394e-05
8.6049e-05
8.50227e-05
8.28016e-05
7.93119e-05
7.48818e-05
7.03571e-05
6.53471e-05
6.09214e-05
0.000107998
0.000272025
0.000398299
0.000472007
0.000527022
0.000570521
0.000606358
0.000637181
0.000664783
0.000690214
0.00071376
0.000734976
0.0007533
0.000767814
0.000776521
0.000771397
0.000748117
0.00070523
0.000644382
0.000570766
0.000507031
0.000411288
0.000169679
0.000115127
0.000437353
0.000643211
0.000786328
0.000903013
0.00100166
0.00108657
0.00116098
0.00122748
0.00128785
0.00134275
0.00139143
0.0014327
0.00146444
0.00148218
0.00147353
0.00143152
0.00135145
0.00123464
0.00108943
0.00093458
0.000702705
0.000190029
0.00011621
0.000521208
0.000781097
0.000984268
0.00116166
0.00131806
0.00145587
0.00157764
0.00168613
0.00178373
0.00187149
0.00194854
0.00201318
0.00206225
0.00208883
0.00208054
0.00202793
0.00192429
0.00176951
0.00156894
0.00132252
0.000944577
0.000207732
0.000115221
0.000537254
0.000836199
0.0010941
0.00133137
0.0015464
0.00173807
0.00190777
0.00205853
0.0021937
0.00231416
0.00241918
0.00250682
0.00257305
0.00261001
0.00260561
0.00254917
0.00243262
0.00225354
0.00200987
0.00167745
0.00114264
0.000223799
0.00011463
0.00050459
0.00083008
0.00113914
0.00143553
0.00170828
0.00195222
0.00216808
0.00235977
0.00253072
0.00268261
0.00281481
0.00292509
0.00300885
0.00305785
0.0030604
0.00300541
0.00288374
0.00269014
0.00241333
0.00200637
0.00132404
0.000238797
0.00011337
0.000452252
0.000787995
0.00114249
0.00149438
0.00182059
0.00211232
0.00237054
0.00259951
0.00280385
0.00298561
0.00314395
0.00327646
0.00337814
0.00344062
0.00345261
0.00340313
0.00328205
0.00308148
0.00278232
0.00231862
0.00151093
0.000257295
0.000111183
0.000398608
0.000735721
0.00112706
0.0015258
0.0018967
0.00222865
0.00252295
0.00278476
0.00301967
0.00322939
0.00341265
0.00356696
0.00368693
0.00376406
0.00378744
0.00374658
0.00363048
0.00342951
0.00312089
0.00262939
0.00174666
0.000292312
0.000184756
0.000159608
0.000170533
0.000180157
0.000185987
0.000191742
0.000197167
0.000203188
0.000209546
0.000215721
0.000221413
0.00022697
0.000231992
0.000235043
0.000233559
0.000223545
0.000203185
0.000169703
0.000154499
0.000478087
0.000295052
0.000261901
0.000359262
0.000600314
0.000672641
0.000754221
0.000857318
0.000982728
0.00112044
0.00125696
0.00139272
0.00152349
0.00164462
0.00171681
0.00166352
0.00144467
0.00103625
0.000339988
0.000514589
0.000360975
0.000323079
0.000389223
0.00053721
0.00072131
0.000912291
0.00122033
0.00151406
0.00175686
0.00202475
0.00232681
0.00261716
0.00285216
0.00294993
0.00279817
0.00233156
0.00151912
0.000373828
0.00057243
0.000556191
0.000670847
0.000840083
0.00224717
0.00264304
0.00262968
0.00176892
0.00162348
0.00193575
0.00245174
0.00289547
0.00329461
0.00362421
0.00373931
0.00351406
0.00288172
0.00180573
0.000394436
0.000574341
0.000673182
0.000720475
0.00073821
0.00111224
0.002355
0.00319489
0.00332835
0.00305221
0.00286991
0.00274583
0.0031598
0.0037561
0.00412437
0.00424764
0.00398237
0.00325554
0.00201884
0.000409135
0.000601635
0.000614811
0.000670231
0.000678355
0.000736465
0.00120069
0.00268876
0.00377502
0.00361668
0.00342852
0.00348642
0.00385991
0.00411082
0.00445469
0.0045661
0.00428879
0.00352464
0.00218528
0.000419803
0.000471152
0.000686988
0.000780606
0.000787948
0.000760692
0.000826605
0.00160051
0.00382089
0.00391479
0.00366664
0.00362471
0.00389655
0.00453282
0.00467262
0.00474557
0.00447368
0.00371989
0.00232958
0.000427945
0.000376777
0.00082371
0.000813169
0.000797957
0.00078474
0.000789092
0.00130421
0.00372818
0.00407975
0.00377427
0.00365981
0.00371697
0.00452614
0.00478875
0.00481324
0.00456296
0.00385306
0.00245824
0.000435032
0.000108298
0.000335635
0.000671778
0.0011032
0.00155822
0.0019834
0.00236403
0.00270226
0.00300517
0.00327967
0.00352782
0.00374818
0.0039364
0.00408578
0.0041875
0.0042309
0.00420749
0.00410458
0.0039121
0.00360837
0.00313451
0.00239627
0.0013299
0.000114224
0.000339879
0.00067572
0.00112084
0.00160004
0.00204217
0.0024445
0.00281122
0.00314743
0.00345917
0.00374663
0.00400152
0.00421885
0.00439541
0.00452548
0.0046007
0.0046097
0.00453543
0.00437462
0.00411974
0.0037438
0.00323218
0.00262062
0.000187401
0.000839851
0.00134502
0.00173041
0.00187245
0.00214336
0.00249355
0.00283914
0.00316437
0.00347344
0.00377908
0.00406581
0.00431694
0.00452602
0.00468736
0.00478918
0.00481717
0.0047669
0.00464308
0.00444797
0.00416793
0.00381897
0.0034583
0.000208272
0.00121894
0.00200542
0.00255335
0.00297241
0.00337586
0.00376802
0.00413207
0.00444471
0.00464163
0.0045036
0.00423967
0.00435926
0.00454334
0.00469964
0.00481084
0.00484319
0.00481863
0.00473286
0.00458757
0.00437011
0.0041092
0.00385625
0.000212206
0.00143722
0.00244648
0.00317629
0.00374261
0.00423307
0.00467232
0.00506264
0.00539137
0.00562535
0.00572137
0.00575623
0.0058535
0.00592903
0.00582032
0.00517396
0.00493808
0.00484609
0.0047454
0.00459144
0.00436311
0.00414274
0.00395833
0.000213094
0.00156961
0.00274609
0.00362388
0.00431822
0.00489612
0.00539171
0.00581908
0.00617718
0.00645507
0.00664641
0.00678308
0.0069055
0.00698689
0.00696137
0.00679259
0.00666058
0.00653828
0.0063444
0.00593819
0.00494614
0.00425225
0.004002
0.000213515
0.00165714
0.00295291
0.00395521
0.00475812
0.00542293
0.00598195
0.00645446
0.00685015
0.00717036
0.00741846
0.00760995
0.00776147
0.00786682
0.00790644
0.00788066
0.00783277
0.00775251
0.00760191
0.00732221
0.00688456
0.00651687
0.0062041
0.000214336
0.00170634
0.00310491
0.00421127
0.00510554
0.0058458
0.00646699
0.00698869
0.00742436
0.00778377
0.00807402
0.00830526
0.00848712
0.00862141
0.00870536
0.00874259
0.00874452
0.00870461
0.00860696
0.00843456
0.00819327
0.00793609
0.00763409
0.000214871
0.0017455
0.00322502
0.00441511
0.00538468
0.00618894
0.00686385
0.00743222
0.0079082
0.00830309
0.00862802
0.00889176
0.00910211
0.00926379
0.00937949
0.00945298
0.00948825
0.00948219
0.0094284
0.00932247
0.0091673
0.00897068
0.0087117
0.000215042
0.00177903
0.00332158
0.00457803
0.00560892
0.00646662
0.00718719
0.00779512
0.00830729
0.00873571
0.0090903
0.0093814
0.00961699
0.00980272
0.00994299
0.0100416
0.0101013
0.0101215
0.0101001
0.0100368
0.00993172
0.00978271
0.0095766
0.000214766
0.0018049
0.00339588
0.0047048
0.00578551
0.00668768
0.00744683
0.00808826
0.0086303
0.00908667
0.00946816
0.00978366
0.0100411
0.0102473
0.0104075
0.0105257
0.0106047
0.0106453
0.0106486
0.0106156
0.010546
0.0104371
0.0102798
0.00021401
0.00182026
0.00344735
0.00479759
0.00591884
0.0068581
0.00765001
0.00832
0.0088872
0.00936634
0.00976906
0.0101048
0.0103814
0.0106055
0.0107825
0.0109166
0.0110113
0.0110692
0.0110927
0.0110835
0.011042
0.0109662
0.0108485
0.000212817
0.00182349
0.0034765
0.00485848
0.00601239
0.00698265
0.00780258
0.00849726
0.00908608
0.00958434
0.0100043
0.010356
0.0106476
0.0108859
0.0110764
0.0112238
0.0113322
0.0114049
0.0114452
0.0114555
0.0114372
0.0113885
0.0113036
0.000211137
0.00181999
0.00348569
0.00489028
0.00606973
0.00706567
0.00790969
0.008626
0.00923377
0.00974848
0.0101828
0.0105473
0.0108504
0.0110994
0.0113002
0.0114579
0.0115769
0.0116614
0.0117153
0.0117417
0.0117425
0.0117166
0.0116587
0.000208973
0.00181074
0.00347985
0.00489634
0.00609468
0.00711147
0.00797614
0.00871154
0.00933616
0.0098653
0.0103118
0.0106864
0.0109982
0.0112547
0.0114624
0.0116268
0.0117531
0.011846
0.01191
0.011949
0.0119654
0.0119588
0.011924
0.000206463
0.00179591
0.00346065
0.00488184
0.00609133
0.00712444
0.00800654
0.00875875
0.00939842
0.00994031
0.0103971
0.0107796
0.0110974
0.0113583
0.0115695
0.0117371
0.0118668
0.0119643
0.0120347
0.0120828
0.0121118
0.0121217
0.0121079
0.000203766
0.00177637
0.00342951
0.00484945
0.00606511
0.00710901
0.00800542
0.00877215
0.00942514
0.0099782
0.0104435
0.010832
0.0111531
0.0114155
0.0116267
0.0117937
0.0119231
0.0120212
0.0120944
0.0121481
0.0121868
0.0122113
0.0122175
0.000201041
0.00175323
0.00338857
0.00480179
0.00601942
0.00707066
0.00797723
0.00875608
0.00942051
0.00998309
0.0104553
0.0108476
0.0111697
0.0114306
0.0116384
0.0118011
0.0119263
0.0120214
0.0120937
0.01215
0.0121958
0.0122333
0.0122596
0.000198438
0.00172764
0.00334021
0.00474199
0.00595762
0.00701308
0.00792722
0.00871486
0.00938855
0.00995881
0.010436
0.0108302
0.0111509
0.0114074
0.0116087
0.0117637
0.011881
0.0119696
0.0120379
0.012094
0.0121447
0.0121939
0.0122403
0.00019609
0.0017008
0.0032869
0.0046734
0.00588348
0.00694005
0.00785919
0.00865341
0.00933345
0.00990914
0.0103894
0.0107833
0.0111003
0.0113498
0.0115416
0.0116857
0.0117922
0.0118713
0.0119329
0.0119865
0.0120404
0.0120999
0.0121657
0.000194105
0.00167388
0.00323112
0.00459944
0.00580093
0.00685567
0.0077771
0.00857551
0.00925979
0.00983829
0.0103192
0.0107108
0.0110218
0.0112619
0.0114418
0.0115725
0.0116655
0.0117327
0.0117856
0.0118349
0.0118903
0.0119585
0.0120423
0.000192559
0.00164797
0.00317528
0.00452349
0.00571394
0.00676415
0.00768519
0.00848525
0.00917147
0.00975068
0.0102299
0.0106168
0.0109199
0.0111486
0.0113145
0.0114297
0.0115075
0.0115611
0.0116037
0.0116473
0.0117028
0.011778
0.0118772
0.000191498
0.00162408
0.00312166
0.0044488
0.00562638
0.00666972
0.00758776
0.0083869
0.00907266
0.00965046
0.0101261
0.0105064
0.0107995
0.0110153
0.0111656
0.011264
0.0113252
0.0113641
0.0113954
0.0114324
0.0114866
0.0115669
0.0116784
0.000190937
0.00160303
0.00307227
0.00437834
0.00554191
0.00657642
0.00748905
0.00828473
0.00896764
0.00954193
0.0100122
0.0103844
0.0106662
0.0108676
0.0110014
0.0110821
0.011126
0.0111496
0.011169
0.0111984
0.0112502
0.0113335
0.011454
0.000190868
0.00158548
0.00302876
0.00431466
0.00546375
0.00648793
0.00739302
0.0081828
0.00886051
0.00942928
0.00989273
0.0102558
0.0105255
0.0107119
0.0108283
0.0108908
0.010917
0.0109249
0.0109318
0.010953
0.011001
0.0110853
0.0112114
0.000191262
0.00157182
0.00299238
0.00425979
0.00539461
0.00640747
0.00730318
0.00808483
0.00875507
0.00931641
0.00977166
0.0101248
0.0103822
0.0105537
0.0106528
0.0106967
0.0107047
0.0106964
0.0106902
0.0107021
0.010745
0.0108281
0.0109569
0.000192079
0.00156227
0.00296395
0.00421523
0.00533661
0.00633767
0.00722253
0.00799401
0.00865465
0.00920674
0.00965258
0.00999541
0.0102407
0.0103978
0.0104803
0.0105059
0.0104952
0.0104697
0.0104491
0.0104503
0.0104862
0.010566
0.0106946
0.000193271
0.00155683
0.00294389
0.00418195
0.00529129
0.00628057
0.00715351
0.00791302
0.00856203
0.00910309
0.00953842
0.00987067
0.0101045
0.0102482
0.010315
0.010323
0.0102937
0.0102499
0.0102128
0.0102007
0.0102271
0.0103009
0.0104265
0.000194783
0.00155542
0.00293237
0.00416058
0.00525979
0.0062378
0.00709809
0.00784407
0.00847949
0.00900776
0.00943146
0.00975294
0.00997597
0.0101077
0.0101605
0.0101519
0.0101041
0.0100409
0.00998509
0.00995628
0.00996914
0.0100331
0.0101526
0.000196564
0.00155791
0.00292949
0.00415161
0.00524307
0.00621074
0.00705799
0.00778903
0.00840897
0.0089226
0.00933343
0.00964391
0.00985701
0.00997849
0.0100191
0.00999552
0.0099296
0.00984597
0.00976895
0.00971966
0.00971429
0.00976336
0.0098718
0.000198577
0.00156433
0.00293551
0.00415572
0.00524225
0.00620084
0.00703488
0.00774967
0.00835217
0.00884913
0.00924561
0.00954466
0.00974864
0.00986175
0.00989264
0.00985618
0.0097732
0.00966853
0.00956768
0.00949365
0.00946456
0.00949263
0.009584
0.00020082
0.0015749
0.00295118
0.00417418
0.005259
0.00621001
0.00703072
0.00772788
0.00831077
0.00878875
0.00916904
0.00945584
0.00965129
0.00975799
0.00978208
0.00973569
0.0096377
0.00951221
0.00938549
0.0092824
0.00922346
0.00922329
0.00929006
0.000203343
0.00159029
0.00297806
0.0042093
0.00529602
0.00624099
0.00704803
0.00772583
0.00828657
0.0087428
0.00910453
0.00937773
0.00956481
0.00966695
0.0096875
0.00963513
0.00952558
0.00938106
0.00922772
0.00909195
0.00899697
0.00896046
0.00899348
0.00020626
0.00161177
0.003019
0.00426507
0.00535769
0.00629786
0.00709023
0.00774617
0.0082815
0.00871259
0.00905277
0.00931034
0.00948853
0.00958753
0.00960793
0.0095544
0.00943844
0.00927894
0.00910057
0.00893041
0.00879416
0.00871306
0.00870198
0.000209762
0.00164154
0.00307881
0.00434796
0.00545075
0.00638652
0.00716184
0.00779204
0.0082976
0.00869929
0.0090142
0.00925332
0.00942125
0.00951775
0.00954105
0.00949172
0.00937617
0.00920852
0.00901017
0.00880728
0.00862715
0.00849453
0.00842877
0.000214146
0.00168317
0.00316525
0.0044682
0.00558536
0.00651523
0.00726858
0.00786692
0.0083367
0.0087037
0.00898884
0.00920595
0.00936127
0.0094548
0.0094831
0.0094431
0.00933592
0.00916972
0.00896066
0.00873178
0.00851005
0.00832267
0.00819353
0.000219871
0.00174229
0.0032909
0.00464179
0.00577634
0.00669497
0.00741717
0.0079741
0.00839993
0.00872576
0.00897603
0.00916697
0.00930646
0.0093952
0.00942905
0.0094023
0.00931133
0.00915802
0.00895177
0.00870993
0.00845625
0.00821795
0.00802212
0.00022771
0.00182806
0.00347685
0.0048941
0.00604496
0.00693943
0.00761438
0.00811568
0.0084869
0.00876408
0.00897409
0.00913453
0.00925439
0.00933526
0.0093732
0.00936126
0.00929257
0.00916348
0.00897626
0.00874062
0.00847382
0.00819931
0.00794402
0.00023916
0.00195707
0.0037617
0.00526674
0.00642078
0.00726373
0.00786495
0.00829088
0.00859466
0.00881539
0.00898018
0.00910626
0.00920268
0.00927169
0.00931022
0.00931159
0.00926766
0.00917132
0.00901888
0.00881214
0.00855966
0.00827698
0.00798577
0.00025783
0.0021665
0.00422598
0.00583063
0.006942
0.00767994
0.00816747
0.00849356
0.00871666
0.00887433
0.00899047
0.00907961
0.00914948
0.00920244
0.00923654
0.00924655
0.00922521
0.00916465
0.00905809
0.00890147
0.00869495
0.00844403
0.00816017
0.000296397
0.00257049
0.00506696
0.00670749
0.0076469
0.00818556
0.0085077
0.00870972
0.00884243
0.00893403
0.00900091
0.00905264
0.00909428
0.0091276
0.00915167
0.00916337
0.00915789
0.00912931
0.00907137
0.00897825
0.00884543
0.0086705
0.00845397
0.000418253
0.00375596
0.00687533
0.00807456
0.00853198
0.00874036
0.00885133
0.00891709
0.00895912
0.0089878
0.00900877
0.00902522
0.00903885
0.00905029
0.00905932
0.00906497
0.00906559
0.00905902
0.00904264
0.00901358
0.0089688
0.00890522
0.00881971
0.000322591
0.000310745
0.000311065
0.000323963
0.00215645
0.00206295
0.00204389
0.00206921
0.00324377
0.00314507
0.00307899
0.00303244
0.00370819
0.00362354
0.00355009
0.00348386
0.00385149
0.00378522
0.00372252
0.00366201
0.00387672
0.00380329
0.0037352
0.00364486
0.00590097
0.00565423
0.0053158
0.00482736
0.00730465
0.00704675
0.00674003
0.00639206
0.00843872
0.00822818
0.00798425
0.00771622
0.00936215
0.00919567
0.00900565
0.00879342
0.0101124
0.00998164
0.00983086
0.0096585
0.0107188
0.0106151
0.0104928
0.0103494
0.0112027
0.0111191
0.0110176
0.010895
0.0115802
0.0115124
0.0114267
0.0113199
0.0118646
0.0118102
0.0117385
0.011646
0.0120665
0.0120256
0.0119683
0.0118909
0.0121951
0.0121687
0.0121275
0.012068
0.0122576
0.0122473
0.0122245
0.0121858
0.01226
0.012267
0.0122644
0.0122488
0.0122075
0.0122323
0.0122506
0.0122592
0.0121055
0.0121473
0.012186
0.0122183
0.0119596
0.012017
0.0120741
0.0121282
0.0117768
0.0118472
0.01192
0.0119927
0.0115643
0.0116449
0.0117301
0.0118177
0.0113297
0.0114177
0.011512
0.0116105
0.0110798
0.0111723
0.0112728
0.0113788
0.0108193
0.0109142
0.0110182
0.011129
0.0105505
0.0106462
0.0107516
0.0108652
0.0102733
0.0103684
0.010474
0.0105886
0.00998648
0.0100791
0.0101833
0.0102976
0.00968837
0.00977615
0.00987684
0.00998907
0.00937865
0.00945833
0.00955248
0.00965976
0.00905931
0.0091266
0.00921008
0.00930853
0.00873645
0.00878585
0.00885325
0.00893767
0.00842211
0.00844698
0.00849146
0.00855495
0.00813598
0.00812915
0.00814286
0.00817709
0.00790647
0.00786152
0.00783671
0.00783284
0.00776992
0.00768373
0.00761507
0.00756576
0.00776582
0.00764269
0.00753143
0.00743482
0.00792627
0.00778326
0.00764349
0.00750991
0.00826022
0.00813222
0.00799854
0.0078606
0.00873713
0.00867849
0.0086133
0.00854079
0.000972673
0.00131966
0.000987359
0.000850028
0.000813084
0.000879588
0.00171448
0.00411009
0.00415983
0.00381864
0.00368572
0.00365826
0.00413407
0.00478881
0.00478528
0.00458286
0.00394872
0.00258715
0.000441559
0.00223239
0.00205745
0.00138713
0.000877058
0.000863019
0.00101696
0.00222073
0.00389319
0.00388825
0.00358132
0.00353732
0.00362356
0.00400494
0.00464554
0.0046751
0.00451904
0.00396873
0.00268094
0.000452941
0.00296696
0.00267091
0.0020833
0.00164391
0.00107274
0.00139049
0.00245376
0.00351539
0.00343896
0.00322662
0.00331067
0.00350049
0.0042801
0.00468717
0.00464538
0.00444332
0.00390737
0.00267181
0.000457072
0.00337893
0.00312243
0.00275761
0.00266664
0.0012669
0.00167973
0.00256162
0.00304706
0.00296458
0.00293594
0.00316689
0.00352613
0.00485121
0.00485721
0.00466491
0.00436717
0.00377091
0.00256178
0.00044634
0.00356801
0.00340718
0.00318249
0.00299177
0.00277355
0.00173707
0.00244553
0.0026571
0.00266469
0.00287944
0.00323254
0.00450583
0.0051471
0.00496722
0.00467181
0.00425342
0.00353222
0.00236176
0.000423482
0.00359437
0.00353485
0.00345145
0.00331068
0.00322071
0.00271963
0.00211494
0.00241892
0.00259136
0.00304885
0.00347192
0.00533531
0.00530788
0.00502486
0.00460698
0.00407281
0.00320479
0.00207526
0.000386806
0.00375812
0.00355234
0.00358996
0.00358121
0.00353982
0.00361167
0.0032571
0.00206039
0.00244683
0.00323775
0.00532021
0.00546691
0.00531171
0.00495627
0.00444079
0.00367934
0.00260648
0.00168057
0.000337637
0.00578401
0.00479278
0.00368163
0.0037526
0.00379302
0.00386534
0.00399375
0.00398633
0.0027911
0.00482077
0.00535177
0.00538817
0.00517177
0.0047522
0.0040522
0.00287816
0.00184744
0.00109771
0.000293791
0.00725533
0.00646407
0.00512921
0.00388898
0.00395253
0.00404369
0.00416249
0.00431262
0.00444796
0.00507225
0.00522189
0.00516991
0.0049366
0.00444211
0.00320651
0.00192805
0.00125933
0.000771939
0.000278186
0.00841416
0.00775292
0.00675912
0.00513008
0.00408404
0.00417111
0.00429956
0.00444601
0.0046514
0.00490734
0.00500692
0.00493366
0.00470582
0.00387877
0.00227822
0.00140865
0.00105836
0.0008218
0.000292686
0.0093412
0.00877236
0.00797865
0.00686036
0.00538911
0.0042748
0.00439745
0.00452742
0.00466262
0.00479129
0.0048362
0.00477799
0.00449417
0.0034305
0.00203484
0.00136133
0.00116231
0.000983715
0.000310327
0.0100791
0.0095764
0.00888939
0.00797315
0.00682132
0.00552299
0.00445325
0.00457642
0.00467329
0.00474006
0.00476324
0.00473232
0.00445008
0.00365769
0.00217285
0.00159893
0.00145504
0.00114676
0.000332675
0.0106594
0.0102016
0.00957256
0.00874925
0.00773066
0.0065622
0.00540678
0.00464949
0.0046752
0.00474427
0.0047564
0.00468918
0.00396084
0.00315863
0.00223487
0.00202565
0.00185742
0.00140443
0.000356484
0.0111115
0.0106859
0.0100911
0.009315
0.00836695
0.00728729
0.00620272
0.00535646
0.00502284
0.00477815
0.0046686
0.00468093
0.00381059
0.00305246
0.00278632
0.00199979
0.00187163
0.00146014
0.000368021
0.0114626
0.0110675
0.0105026
0.00976127
0.00885926
0.00783942
0.00680425
0.00597901
0.0055677
0.00529978
0.00511189
0.00466116
0.00390728
0.00367425
0.00397378
0.00199959
0.0019151
0.00150597
0.000370174
0.0117353
0.0113779
0.010852
0.0101521
0.00929611
0.00832517
0.00732242
0.0064823
0.00597299
0.00569067
0.00535064
0.00482583
0.0043805
0.00454683
0.00497322
0.00315099
0.00185475
0.00151518
0.000371554
0.0119456
0.0116377
0.0111653
0.0105209
0.00972069
0.00880202
0.00783446
0.00697165
0.00638012
0.00599421
0.00559806
0.0051621
0.0049845
0.00536618
0.00562303
0.00385327
0.00180017
0.0015129
0.000370109
0.0121022
0.0118562
0.0114518
0.0108769
0.0101435
0.00928505
0.00836376
0.00748815
0.00680666
0.0063095
0.00589239
0.00556437
0.00556184
0.00594285
0.00591618
0.00357491
0.00194102
0.00148767
0.000371844
0.0122085
0.0120341
0.0117093
0.0112155
0.010558
0.00976626
0.00889558
0.0080341
0.0072803
0.00669082
0.00625634
0.00600644
0.00605739
0.00628899
0.00593828
0.00230985
0.00195091
0.00151406
0.000383988
0.012264
0.0121669
0.0119296
0.0115253
0.0109513
0.0102314
0.00941494
0.00857509
0.00779396
0.0071477
0.00669245
0.00646702
0.00647082
0.00649521
0.00589309
0.00199998
0.00193718
0.0015136
0.000389882
0.0122675
0.0122488
0.0121023
0.011793
0.011309
0.0106667
0.00990933
0.00910201
0.00832096
0.00765092
0.00717298
0.00691428
0.00680808
0.00663273
0.00587472
0.00203949
0.00192587
0.00149873
0.000388475
0.0122183
0.0122742
0.0122174
0.0120056
0.011617
0.0110588
0.0103675
0.00960291
0.00883924
0.00816177
0.00765001
0.0073166
0.00708231
0.00675785
0.00593564
0.00242257
0.00191954
0.00148299
0.000383235
0.0121181
0.0122409
0.012268
0.0121522
0.0118623
0.0113949
0.0107777
0.0100647
0.00932712
0.00864493
0.00808567
0.00765759
0.00730701
0.00689433
0.0060614
0.003508
0.00189318
0.00148445
0.000379181
0.0119715
0.0121504
0.0122517
0.0122258
0.0120344
0.0116629
0.0111279
0.0104745
0.00976739
0.00907739
0.00845957
0.00792905
0.00747294
0.00698936
0.00607776
0.00362084
0.00199377
0.00152739
0.000381434
0.0117855
0.0120084
0.0121713
0.0122252
0.0121271
0.0118528
0.0114063
0.0108201
0.0101479
0.00944833
0.00876585
0.00812635
0.00755199
0.00694916
0.00581524
0.00261361
0.00209068
0.00160069
0.000389946
0.0115687
0.0118235
0.0120344
0.0121549
0.0121406
0.0119599
0.0116044
0.0110922
0.0104615
0.00975632
0.00901111
0.00825951
0.00754671
0.00677617
0.00535893
0.00226077
0.00210196
0.00164855
0.000396578
0.0113287
0.0116056
0.0118517
0.0120247
0.0120812
0.0119857
0.0117195
0.0112857
0.0107056
0.0100069
0.00921373
0.00836331
0.00751746
0.0066003
0.00496498
0.00233973
0.00210468
0.00166893
0.000401625
0.0110712
0.011363
0.0116342
0.0118467
0.0119603
0.0119385
0.0117554
0.0114016
0.0108822
0.0102093
0.00939782
0.00848679
0.00755713
0.00660658
0.00530001
0.0025734
0.00209348
0.00166784
0.000406596
0.0107986
0.0111008
0.0113902
0.0116324
0.011791
0.0118305
0.0117218
0.0114464
0.0109967
0.0103724
0.00958165
0.00866658
0.00773059
0.00685901
0.00592545
0.00389119
0.00203522
0.00164999
0.000403017
0.0105098
0.0108198
0.0111236
0.0113893
0.0115838
0.0116741
0.0116304
0.0114296
0.011056
0.0105009
0.00976884
0.00890456
0.00802507
0.0072604
0.00650772
0.00492451
0.00203995
0.00164712
0.000398817
0.0102011
0.0105169
0.0108331
0.011119
0.0113441
0.0114778
0.0114912
0.0113602
0.0110652
0.0105939
0.00994846
0.00917148
0.00837306
0.00767244
0.00693911
0.0053922
0.00248377
0.00166386
0.000392653
0.00986733
0.0101862
0.0105129
0.0108175
0.0110705
0.0112432
0.0113084
0.0112421
0.0110255
0.0106449
0.0101008
0.00942747
0.0087101
0.00802905
0.00724555
0.00566177
0.00277555
0.00166851
0.000402423
0.00950564
0.00982102
0.010155
0.0104761
0.0107553
0.0109648
0.0110786
0.0110731
0.010932
0.010642
0.0102022
0.00963466
0.00899391
0.00832308
0.00751341
0.00608694
0.00287976
0.00169189
0.000442009
0.0091166
0.00941775
0.00975138
0.0100847
0.0103872
0.0106311
0.010791
0.0108445
0.0107736
0.0105681
0.0102258
0.00975726
0.00918789
0.00852922
0.00768386
0.00626165
0.00251599
0.0016693
0.000443394
0.00870466
0.00897681
0.00929797
0.00963507
0.00995474
0.0102285
0.0104303
0.0105384
0.0105329
0.0104041
0.0101471
0.0097632
0.00925979
0.00862152
0.00774848
0.00632301
0.00259985
0.00165795
0.000428451
0.00828365
0.00850689
0.00879823
0.00912461
0.00945078
0.00974599
0.00998237
0.0101369
0.0101907
0.0101293
0.0099439
0.00962854
0.00918666
0.00859575
0.007753
0.00641215
0.00355635
0.00166412
0.000410973
0.00788036
0.00802973
0.00826786
0.00856286
0.00887858
0.00918102
0.00944034
0.00963062
0.00973158
0.00972733
0.00960478
0.0093569
0.00898598
0.00844423
0.00765582
0.00648098
0.00462251
0.00171878
0.000402786
0.00753901
0.0075881
0.00774287
0.00797926
0.00826017
0.00854869
0.00881295
0.00902347
0.0091569
0.00919565
0.00912674
0.00894441
0.00862162
0.00812377
0.00739908
0.00633298
0.00472233
0.00202419
0.000408075
0.0073243
0.00724832
0.00728757
0.00743397
0.00764973
0.00789543
0.00813874
0.00834662
0.00849171
0.0085528
0.00851404
0.00836355
0.00807548
0.00761261
0.00690532
0.00583679
0.0043066
0.00201782
0.000422671
0.0073223
0.007109
0.00700132
0.00702497
0.00714431
0.00731399
0.00750372
0.00767917
0.00780895
0.00786681
0.00783153
0.00768364
0.00739519
0.00692274
0.00617337
0.00499757
0.00329015
0.00201995
0.00046842
0.00763863
0.00731258
0.00702034
0.00685731
0.00685768
0.00692956
0.00703924
0.00715486
0.00724335
0.00727413
0.00722078
0.00705814
0.0067537
0.0062516
0.00543324
0.00414879
0.0030373
0.00187749
0.000486228
0.00840735
0.00814013
0.00766786
0.00691617
0.00679673
0.00679241
0.00683504
0.0068949
0.00694055
0.00694075
0.0068674
0.00669431
0.006391
0.00590856
0.00514011
0.00379267
0.0022437
0.00226515
0.000516749
)
;

boundaryField
{
    leftWall
    {
        type            nutkWallFunction;
        blending        stepwise;
        Cmu             0.09;
        kappa           0.41;
        E               9.8;
        value           nonuniform List<scalar> 
50
(
1.04598e-05
1.28324e-05
1.36212e-05
1.37369e-05
1.36597e-05
1.36148e-05
1.34884e-05
1.32515e-05
1.2952e-05
7.37761e-06
1.82938e-05
2.1387e-05
2.19232e-05
2.20083e-05
2.20329e-05
2.21231e-05
2.2182e-05
2.21933e-05
2.21449e-05
2.20333e-05
2.18605e-05
2.16113e-05
2.12925e-05
2.09243e-05
2.05296e-05
2.01318e-05
1.97526e-05
1.94115e-05
1.91242e-05
1.89022e-05
1.87521e-05
1.86762e-05
1.8673e-05
1.87382e-05
1.88659e-05
1.90485e-05
1.9278e-05
1.95462e-05
1.98475e-05
2.01807e-05
2.05523e-05
2.09778e-05
2.14838e-05
2.21113e-05
2.29238e-05
2.40279e-05
2.56292e-05
2.82196e-05
3.3487e-05
4.94089e-05
)
;
    }
    rightWall
    {
        type            nutkWallFunction;
        blending        stepwise;
        Cmu             0.09;
        kappa           0.41;
        E               9.8;
        value           nonuniform List<scalar> 
50
(
2.96677e-05
3.76695e-05
4.08704e-05
4.27809e-05
4.41527e-05
4.51847e-05
4.59879e-05
4.6702e-05
4.73883e-05
4.86493e-05
4.91763e-05
4.8405e-05
4.64836e-05
4.31947e-05
3.84515e-05
3.36157e-05
3.12948e-05
3.20613e-05
3.3317e-05
3.5053e-05
3.74108e-05
3.96167e-05
4.01035e-05
4.03629e-05
4.05414e-05
4.06645e-05
4.1823e-05
4.24958e-05
4.26708e-05
4.24271e-05
4.16617e-05
4.15151e-05
4.18947e-05
4.25467e-05
4.31045e-05
4.35997e-05
4.37025e-05
4.36725e-05
4.32941e-05
4.37976e-05
4.78515e-05
4.91852e-05
4.81594e-05
4.65924e-05
4.57777e-05
4.65274e-05
4.76951e-05
5.28446e-05
5.52994e-05
6.25544e-05
)
;
    }
    lowerWall
    {
        type            nutkWallFunction;
        blending        stepwise;
        Cmu             0.09;
        kappa           0.41;
        E               9.8;
        value           nonuniform List<scalar> 
62
(
5.00433e-06
6.26966e-06
7.35933e-06
8.11101e-06
8.57535e-06
8.88978e-06
9.13576e-06
9.35188e-06
9.55376e-06
9.74698e-06
9.93004e-06
1.00958e-05
1.02389e-05
1.03491e-05
1.04067e-05
1.03959e-05
1.02786e-05
1.00239e-05
9.62096e-06
9.10121e-06
8.57187e-06
7.95311e-06
7.45385e-06
7.45385e-06
1.96572e-05
2.1839e-05
2.37537e-05
2.54378e-05
2.6967e-05
2.87561e-05
3.20256e-05
3.55168e-05
3.41933e-05
3.4074e-05
3.51584e-05
2.28993e-05
5.38859e-05
5.81849e-05
6.35072e-05
6.38112e-05
5.98975e-05
4.35202e-05
3.99687e-05
2.28993e-05
1.89653e-05
1.97837e-05
2.08168e-05
2.14305e-05
2.20046e-05
2.25796e-05
2.32164e-05
2.38983e-05
2.45811e-05
2.5213e-05
2.57835e-05
2.62751e-05
2.65956e-05
2.64871e-05
2.54982e-05
2.33725e-05
1.98427e-05
1.34537e-05
)
;
    }
    atmosphere
    {
        type            calculated;
        value           nonuniform List<scalar> 
46
(
0.009
0.009
0.009
0.009
0.009
0.009
0.009
0.009
0.009
0.009
0.009
0.009
0.009
0.009
0.009
0.009
0.009
0.009
0.009
0.009
0.009
0.009
0.009
0.009
0.009
0.009
0.009
0.009
0.009
0.009
0.00691617
0.00679673
0.00679241
0.00683504
0.0068949
0.00694055
0.00694075
0.0068674
0.00669431
0.006391
0.00590856
0.00514011
0.009
0.009
0.009
0.000516749
)
;
    }
    defaultFaces
    {
        type            empty;
    }
}


// ************************************************************************* //
