/*--------------------------------*- C++ -*----------------------------------*\
| =========                 |                                                 |
| \\      /  F ield         | OpenFOAM: The Open Source CFD Toolbox           |
|  \\    /   O peration     | Version:  v2012                                 |
|   \\  /    A nd           | Website:  www.openfoam.com                      |
|    \\/     M anipulation  |                                                 |
\*---------------------------------------------------------------------------*/
FoamFile
{
    version     2.0;
    format      ascii;
    class       volScalarField;
    location    "0.65";
    object      p;
}
// * * * * * * * * * * * * * * * * * * * * * * * * * * * * * * * * * * * * * //

dimensions      [1 -1 -2 0 0 0 0];


internalField   nonuniform List<scalar> 
2268
(
520.865
519.757
524.681
533.345
544.789
558.019
572.921
589.528
607.808
627.612
648.708
670.829
693.669
716.955
740.387
763.694
786.635
808.86
829.88
848.248
861.031
870.277
885.067
461.733
459.969
464.22
473.087
484.519
497.839
512.915
529.74
548.229
568.211
589.443
611.667
634.612
658.001
681.594
705.161
728.515
751.351
773.061
792.296
805.699
810.698
824.345
401.159
399.776
404.611
413.135
424.409
437.709
452.875
469.874
488.572
508.753
530.153
552.524
575.609
599.141
622.911
646.697
670.354
693.558
715.611
735.077
749.671
753.585
766.031
340.008
339.26
344.727
353.224
364.366
377.586
392.754
409.876
428.764
449.168
470.776
493.344
516.626
540.378
564.321
588.308
612.178
635.577
657.802
677.324
692.862
697.807
710.557
278.899
278.734
284.653
293.197
304.21
317.312
332.408
349.633
368.711
389.382
411.238
434.054
457.587
481.582
505.779
530.005
554.1
577.681
600.118
619.818
636.699
643.509
657.283
217.668
218.412
224.32
232.942
243.812
256.762
271.716
289.056
308.383
329.312
351.492
374.611
398.45
422.749
447.257
471.786
496.184
520.014
542.813
563.359
581.002
590.499
606.566
156.042
157.876
163.583
172.23
182.955
195.802
210.494
228.036
247.642
268.939
291.537
315.023
339.216
363.868
388.737
413.641
438.43
462.587
485.873
507.458
526.473
539.026
558.949
93.782
96.8455
101.934
110.198
120.681
133.674
148.069
165.874
186.012
207.975
231.3
255.295
279.919
304.969
330.23
355.552
380.776
405.318
429.192
452.009
473.042
489.749
514.562
938.074
838.602
591.949
392.047
313.393
301.709
305.823
311.978
328.694
352.771
382.579
436.266
557.593
794.797
1099.35
1342.21
1451.8
1444.25
1381.57
947.72
700.922
338.79
240.99
237.702
248.765
249.643
250.451
261.528
280.285
303.067
347.518
449.413
662.684
955.842
1204.64
1335.79
1357.66
1317
1033.87
492.566
257.673
233.836
232.805
232.592
231.282
230.28
233.323
237.657
240.33
264.3
337.111
524.766
812.08
1069.49
1222.39
1274.18
1247.63
1012.26
379.188
250.154
234.076
233.401
232.743
231.617
230.181
228.397
227.471
226.379
224.911
243.775
390.937
681.153
951.556
1119.35
1194.07
1176.7
952.733
435.081
254.402
233.853
233.449
232.728
231.411
229.907
228.509
227.874
227.451
225.792
217.691
286.136
560.646
845.262
1019.95
1108.5
1104.15
932.321
515.436
262.084
229.738
232.38
232.332
231.215
229.709
228.357
227.664
227.416
227.03
224.999
239.719
455.475
748.325
923.974
1017.64
1028.35
930.885
577.461
232.98
196.021
226.137
230.343
230.687
229.464
228.133
227.449
227.213
227.058
226.864
231.288
373.56
661.063
833.327
925.966
950.924
817.255
562.677
244.309
143.478
202.514
223.045
229.313
228.919
227.781
227.187
227.013
226.958
227.094
229.383
315.354
583.344
748.454
837.42
873.355
29.2573
29.9153
32.3565
36.5994
42.6507
50.8777
61.9675
75.7816
92.645
112.769
135.954
161.093
186.782
212.703
238.733
264.767
290.681
315.798
340.591
365.334
389.902
414.442
448.517
-0.164551
-0.137267
-0.08578
0.0219668
0.756488
2.31839
4.75366
8.48028
13.981
21.8148
32.9619
48.4821
67.361
88.9269
113.493
141.193
169.038
194.168
218.913
244.849
270.805
297.112
329.728
-0.263665
-0.272124
-0.269176
-0.259907
-0.245662
-0.234484
-0.23275
-0.243894
-0.257901
-0.239245
0.0776835
1.76731
6.08068
13.1764
23.6786
39.0901
57.5461
76.3271
98.6479
124.805
149.029
172.69
200.867
-0.423653
-0.421044
-0.407854
-0.39418
-0.399595
-0.40685
-0.413359
-0.419455
-0.421329
-0.41157
-0.393533
-0.401364
-0.483513
-0.55607
-0.534152
0.243986
2.48658
8.90922
19.5711
34.0518
45.1847
58.0611
78.1805
-0.558231
-0.558701
-0.552213
-0.544526
-0.544677
-0.546823
-0.549567
-0.553237
-0.556274
-0.558263
-0.569276
-0.598511
-0.624188
-0.631304
-0.613872
-0.612663
-0.667016
-0.806419
-0.881536
-0.857362
-0.338297
3.33371
9.81165
-0.701945
-0.70098
-0.697588
-0.693782
-0.692862
-0.69325
-0.694768
-0.69731
-0.70031
-0.703884
-0.712157
-0.729272
-0.747813
-0.760077
-0.765975
-0.778994
-0.795542
-0.803202
-0.796085
-0.774576
-0.756178
-0.816033
-0.846518
-0.845444
-0.844414
-0.842488
-0.840507
-0.8399
-0.840385
-0.841784
-0.844002
-0.846858
-0.850481
-0.856416
-0.866867
-0.88027
-0.892254
-0.901198
-0.912209
-0.925993
-0.938442
-0.938639
-0.91999
-0.887584
-0.859968
-0.835208
-0.989209
-0.988249
-0.98708
-0.986104
-0.985943
-0.986576
-0.987923
-0.989937
-0.992589
-0.996046
-1.00101
-1.00837
-1.01741
-1.02605
-1.03325
-1.04103
-1.05012
-1.05795
-1.05746
-1.04434
-1.02114
-0.996435
-0.962222
-1.13292
-1.13219
-1.13149
-1.13109
-1.13126
-1.13201
-1.1333
-1.13513
-1.1375
-1.14054
-1.14458
-1.1499
-1.15609
-1.16217
-1.16761
-1.17296
-1.17809
-1.18114
-1.17864
-1.16847
-1.15178
-1.13147
-1.10281
-1.27637
-1.27595
-1.2756
-1.27555
-1.27595
-1.27679
-1.27806
-1.27973
-1.28182
-1.28438
-1.28755
-1.29143
-1.29578
-1.30014
-1.30418
-1.30789
-1.31083
-1.31177
-1.30891
-1.30109
-1.28864
-1.27271
-1.252
-1.41944
-1.41932
-1.41926
-1.41946
-1.42002
-1.42095
-1.4222
-1.42376
-1.42561
-1.42776
-1.43026
-1.43314
-1.43629
-1.43948
-1.44251
-1.44523
-1.44723
-1.44771
-1.44566
-1.44041
-1.43205
-1.42135
-1.40859
-1.56203
-1.56218
-1.56239
-1.56279
-1.56349
-1.56449
-1.56576
-1.56724
-1.56891
-1.57076
-1.5728
-1.57503
-1.57741
-1.57985
-1.58227
-1.58453
-1.58633
-1.58718
-1.58649
-1.58393
-1.57962
-1.57423
-1.56855
-1.70409
-1.70449
-1.70493
-1.70552
-1.70635
-1.70744
-1.70873
-1.71019
-1.71175
-1.71341
-1.71515
-1.71698
-1.71892
-1.72096
-1.72311
-1.7253
-1.72736
-1.729
-1.72991
-1.73
-1.72944
-1.72888
-1.72927
-1.84565
-1.84623
-1.84687
-1.84764
-1.84861
-1.84979
-1.85115
-1.85262
-1.85415
-1.85571
-1.85729
-1.85892
-1.86063
-1.86251
-1.86462
-1.86699
-1.86957
-1.8722
-1.87477
-1.87731
-1.88008
-1.88369
-1.88917
-1.98672
-1.98742
-1.98823
-1.98916
-1.99027
-1.99156
-1.99301
-1.99454
-1.9961
-1.99765
-1.99919
-2.00075
-2.0024
-2.00427
-2.00649
-2.00917
-2.01236
-2.01602
-2.02016
-2.02488
-2.0305
-2.0376
-2.04721
-2.12733
-2.1281
-2.12904
-2.1301
-2.13134
-2.13276
-2.13431
-2.13594
-2.13759
-2.13922
-2.14081
-2.14241
-2.14412
-2.14609
-2.14851
-2.15156
-2.15538
-2.16001
-2.16555
-2.17215
-2.18013
-2.19003
-2.20286
-2.2675
-2.26832
-2.26934
-2.27051
-2.27187
-2.2734
-2.27508
-2.27684
-2.27862
-2.28038
-2.28211
-2.28385
-2.2857
-2.28785
-2.29052
-2.29396
-2.29836
-2.30388
-2.31064
-2.31883
-2.32872
-2.34082
-2.35604
-2.40727
-2.40809
-2.40916
-2.41042
-2.41187
-2.41352
-2.41531
-2.41721
-2.41916
-2.4211
-2.42302
-2.42496
-2.42703
-2.4294
-2.43235
-2.43614
-2.44107
-2.44734
-2.45514
-2.46465
-2.47611
-2.48991
-2.50687
-2.54663
-2.54744
-2.54854
-2.54986
-2.5514
-2.55313
-2.55504
-2.55708
-2.55919
-2.56133
-2.56348
-2.56567
-2.56798
-2.57061
-2.57382
-2.57793
-2.58327
-2.59013
-2.59874
-2.60931
-2.62203
-2.63718
-2.65546
-2.6856
-2.68639
-2.6875
-2.68887
-2.69046
-2.69227
-2.69428
-2.69644
-2.69871
-2.70105
-2.70343
-2.70588
-2.70847
-2.71136
-2.71482
-2.71917
-2.72479
-2.73203
-2.7412
-2.75253
-2.7662
-2.78239
-2.80169
-2.82419
-2.82495
-2.82606
-2.82745
-2.82908
-2.83095
-2.83304
-2.83531
-2.83772
-2.84024
-2.84285
-2.84555
-2.84841
-2.85158
-2.85527
-2.85981
-2.8656
-2.87302
-2.88246
-2.89422
-2.90847
-2.92536
-2.9454
-2.96239
-2.96313
-2.96423
-2.96563
-2.96729
-2.9692
-2.97135
-2.9737
-2.97622
-2.9789
-2.98171
-2.98465
-2.98778
-2.99121
-2.99513
-2.99984
-3.00571
-3.01317
-3.02264
-3.03449
-3.04895
-3.06616
-3.08658
-3.1002
-3.10093
-3.10202
-3.10342
-3.10509
-3.10703
-3.10921
-3.11161
-3.11422
-3.11703
-3.12
-3.12316
-3.12654
-3.13022
-3.13437
-3.13924
-3.14517
-3.1526
-3.16195
-3.17364
-3.18796
-3.2051
-3.22553
-3.23764
-3.23835
-3.23943
-3.24083
-3.2425
-3.24444
-3.24663
-3.24907
-3.25174
-3.25463
-3.25774
-3.26107
-3.26466
-3.26857
-3.27294
-3.27798
-3.28399
-3.29136
-3.30053
-3.31193
-3.3259
-3.34268
-3.36275
-3.37471
-3.3754
-3.37647
-3.37785
-3.37951
-3.38144
-3.38363
-3.38607
-3.38876
-3.39171
-3.3949
-3.39837
-3.40212
-3.40623
-3.41079
-3.41599
-3.42209
-3.42943
-3.43843
-3.4495
-3.46303
-3.47927
-3.49875
-3.51141
-3.51209
-3.51315
-3.51451
-3.51614
-3.51804
-3.52021
-3.52263
-3.52532
-3.52828
-3.53152
-3.53505
-3.53892
-3.54316
-3.54788
-3.55321
-3.5594
-3.56673
-3.57557
-3.58635
-3.59941
-3.61507
-3.63384
-3.64776
-3.64843
-3.64946
-3.6508
-3.65239
-3.65425
-3.65637
-3.65876
-3.66141
-3.66435
-3.66759
-3.67114
-3.67505
-3.67936
-3.68416
-3.68959
-3.69582
-3.70312
-3.71184
-3.72234
-3.73497
-3.75005
-3.76806
-3.78376
-3.78441
-3.78543
-3.78673
-3.78828
-3.79009
-3.79215
-3.79447
-3.79706
-3.79994
-3.80313
-3.80665
-3.81053
-3.81485
-3.81966
-3.82509
-3.8313
-3.83854
-3.8471
-3.85732
-3.86953
-3.88403
-3.90127
-3.91942
-3.92007
-3.92106
-3.92231
-3.92381
-3.92555
-3.92754
-3.92978
-3.93229
-3.93508
-3.93817
-3.9416
-3.94541
-3.94965
-3.95439
-3.95974
-3.96585
-3.97295
-3.98129
-3.99119
-4.00295
-4.01684
-4.0333
-4.05477
-4.0554
-4.05636
-4.05757
-4.059
-4.06066
-4.06256
-4.06471
-4.0671
-4.06978
-4.07275
-4.07605
-4.07972
-4.08381
-4.0884
-4.09358
-4.09951
-4.10636
-4.1144
-4.1239
-4.13513
-4.14834
-4.16397
-4.18981
-4.19042
-4.19134
-4.1925
-4.19387
-4.19545
-4.19725
-4.19927
-4.20154
-4.20407
-4.20689
-4.21001
-4.2135
-4.21739
-4.22176
-4.2267
-4.23234
-4.23887
-4.2465
-4.2555
-4.2661
-4.27852
-4.2932
-4.32455
-4.32514
-4.32602
-4.32713
-4.32843
-4.32992
-4.33161
-4.33351
-4.33563
-4.33799
-4.34062
-4.34355
-4.34681
-4.35046
-4.35455
-4.35918
-4.36446
-4.37056
-4.37769
-4.38607
-4.39594
-4.40747
-4.42107
-4.45902
-4.45959
-4.46044
-4.4615
-4.46272
-4.46411
-4.46567
-4.46743
-4.46938
-4.47157
-4.47399
-4.47669
-4.47971
-4.48307
-4.48685
-4.4911
-4.49596
-4.50157
-4.5081
-4.51579
-4.52481
-4.53533
-4.54774
-4.59323
-4.59381
-4.59463
-4.59562
-4.59676
-4.59804
-4.59947
-4.60107
-4.60285
-4.60483
-4.60704
-4.6095
-4.61224
-4.61529
-4.61871
-4.62257
-4.62695
-4.63201
-4.63789
-4.6448
-4.65289
-4.66232
-4.67343
-4.72722
-4.72783
-4.72862
-4.72955
-4.73059
-4.73174
-4.73303
-4.73446
-4.73606
-4.73783
-4.73981
-4.742
-4.74445
-4.74718
-4.75023
-4.75365
-4.75754
-4.762
-4.76719
-4.77327
-4.78039
-4.78867
-4.79841
-4.861
-4.86169
-4.86246
-4.86331
-4.86424
-4.86526
-4.86639
-4.86764
-4.86904
-4.8706
-4.87233
-4.87425
-4.8764
-4.87878
-4.88144
-4.88442
-4.88779
-4.89165
-4.89613
-4.90137
-4.90749
-4.91458
-4.92292
-4.9946
-4.99544
-4.9962
-4.99695
-4.99775
-4.99861
-4.99957
-5.00064
-5.00183
-5.00316
-5.00464
-5.00629
-5.00812
-5.01016
-5.01242
-5.01495
-5.0178
-5.02106
-5.02482
-5.02922
-5.03434
-5.04026
-5.04721
-5.12803
-5.12913
-5.12989
-5.13052
-5.13116
-5.13184
-5.13261
-5.13348
-5.13447
-5.13557
-5.13679
-5.13816
-5.13967
-5.14135
-5.14321
-5.14529
-5.14763
-5.15028
-5.15334
-5.15691
-5.16106
-5.16584
-5.17145
-5.26135
-5.26279
-5.26358
-5.26404
-5.26447
-5.26496
-5.26553
-5.26621
-5.26698
-5.26785
-5.26882
-5.26989
-5.27109
-5.27241
-5.27387
-5.2755
-5.27732
-5.27938
-5.28176
-5.28452
-5.28773
-5.29143
-5.29575
-5.39492
-5.39663
-5.39741
-5.39746
-5.39759
-5.39787
-5.39827
-5.39876
-5.39932
-5.39997
-5.40068
-5.40148
-5.40235
-5.40332
-5.40438
-5.40556
-5.40688
-5.40837
-5.41008
-5.41206
-5.41437
-5.41702
-5.42011
-5.52919
-5.53146
-5.53186
-5.5308
-5.53047
-5.53058
-5.53083
-5.53115
-5.53154
-5.53196
-5.53243
-5.53294
-5.53349
-5.53411
-5.53478
-5.53553
-5.53635
-5.53728
-5.53833
-5.53955
-5.54096
-5.54258
-5.54445
-5.66151
-5.6685
-5.66733
-5.66509
-5.66453
-5.66449
-5.66458
-5.66471
-5.66485
-5.665
-5.66515
-5.66531
-5.66548
-5.66566
-5.66586
-5.66608
-5.66633
-5.66661
-5.66693
-5.66729
-5.66771
-5.66818
-5.66872
496.83
523.329
549.141
577.135
361.398
379.601
394.622
406.725
224.028
238.272
251.028
262.038
99.0135
113.705
128.134
141.772
17.4545
23.4382
29.3703
36.8207
-0.775505
-0.610578
-0.18055
0.558021
-0.80371
-0.774414
-0.725193
-0.655535
-0.914835
-0.874995
-0.835253
-0.827327
-1.07027
-1.04721
-1.02393
-1.01033
-1.23195
-1.2191
-1.20652
-1.19711
-1.3982
-1.39219
-1.38637
-1.3823
-1.56568
-1.56519
-1.56532
-1.56668
-1.73249
-1.73661
-1.74192
-1.74823
-1.89738
-1.90532
-1.91482
-1.9251
-2.05949
-2.07056
-2.08339
-2.09665
-2.2183
-2.23186
-2.24733
-2.26284
-2.37369
-2.38903
-2.40646
-2.42372
-2.52594
-2.54233
-2.561
-2.57949
-2.67545
-2.6924
-2.71164
-2.73079
-2.82242
-2.83975
-2.85922
-2.87857
-2.9668
-2.98454
-3.0042
-3.02355
-3.10847
-3.12663
-3.14658
-3.16597
-3.24758
-3.266
-3.28623
-3.30572
-3.38457
-3.40295
-3.42326
-3.4428
-3.52002
-3.53805
-3.55811
-3.57747
-3.65435
-3.67178
-3.69126
-3.71015
-3.78773
-3.80441
-3.82306
-3.84119
-3.92007
-3.93594
-3.95362
-3.97078
-4.05118
-4.06621
-4.08288
-4.09896
-4.1809
-4.19509
-4.21071
-4.22569
-4.30913
-4.32247
-4.33706
-4.35092
-4.43591
-4.44836
-4.46191
-4.47467
-4.56138
-4.57287
-4.58534
-4.59699
-4.68576
-4.69621
-4.70755
-4.71807
-4.80933
-4.81868
-4.82881
-4.83817
-4.9324
-4.94057
-4.94945
-4.95759
-5.05522
-5.0622
-5.06978
-5.07667
-5.17801
-5.18379
-5.19005
-5.1957
-5.30091
-5.30548
-5.31044
-5.31485
-5.42389
-5.42728
-5.43094
-5.43415
-5.54679
-5.54892
-5.55125
-5.55328
-5.66944
-5.67013
-5.6709
-5.67156
632.599
474.038
247.975
212.441
196.475
218.528
226.462
227.524
226.973
226.657
226.656
226.748
226.982
228.468
264.396
482.607
631.591
712.895
757.505
421.824
334.802
219.89
209.173
216.171
221.151
224.715
225.727
225.69
225.761
226.079
226.409
226.667
227.19
241.126
399.854
510.151
575.699
621.538
275.127
240.184
210.584
217.593
219.672
221.626
224.119
224.689
224.716
225.012
225.626
226.09
226.404
226.939
233.031
336.052
410.765
461.764
504.469
161.677
165.376
191.745
221.682
222.165
223.335
224.326
224.379
224.382
224.788
225.445
225.927
226.013
219.886
226.166
283.685
328.947
366.308
405.393
57.8159
87.5475
128.424
201.918
222.982
224.613
224.776
224.622
224.685
225.147
225.701
225.898
223.601
199.023
210.093
239.649
267.948
290.671
322.128
3.52793
21.568
53.5148
130.523
207.04
224.42
224.919
224.857
225.062
225.593
226.176
225.674
198.435
180.749
194.756
213.126
229.076
238.533
257.994
-0.563259
-0.759872
7.53107
42.5842
131.447
208.05
224.505
224.673
224.945
225.607
225.55
208.236
166.012
171.614
187.249
202.937
209.005
210.804
213.849
-0.874918
-0.860348
-1.03675
2.76988
42.3699
128.753
205.679
224.068
224.402
224.114
212.435
161.991
149.885
167.673
183.625
196.565
199.066
196.087
194.912
-1.00491
-0.973903
-0.958028
-1.04157
3.17212
39.5686
120.743
198.325
222.723
209.037
156.125
125.34
141.403
160.312
175.68
183.497
188.173
190.776
188.328
-1.18454
-1.16173
-1.11382
-1.16838
-1.48142
2.32067
29.1673
93.1602
160.9
124.151
101.342
103.308
119.09
127.361
134.509
143.537
168.941
181.255
163.955
-1.37705
-1.3717
-1.36297
-1.36225
-1.42198
-1.87949
-0.395696
14.9308
51.8514
61.5478
62.2748
63.7017
57.2611
47.749
37.2952
64.4948
122.669
156.345
142.036
-1.56944
-1.57668
-1.59217
-1.62037
-1.64548
-1.6482
-2.20059
-2.28262
6.10346
22.6547
29.2482
18.0171
3.77044
5.81743
8.60533
24.4284
60.8184
115.463
126.091
-1.75838
-1.77495
-1.80117
-1.84384
-1.89617
-1.91344
-2.00205
-2.60135
-3.27607
-1.91474
0.620305
-1.58517
-1.20355
-1.22996
-0.580684
5.21554
23.8395
77.7044
100.239
-1.9411
-1.96525
-1.99807
-2.04455
-2.10885
-2.18167
-2.26363
-2.43274
-2.7426
-2.93484
-2.63985
-2.44616
-2.46917
-2.98168
-3.50474
-3.43884
3.82575
46.1883
68.634
-2.11668
-2.14566
-2.1826
-2.22957
-2.28932
-2.36392
-2.45633
-2.57013
-2.71443
-2.81
-2.82585
-2.77029
-2.83091
-3.31026
-3.79202
-4.21196
-2.48296
21.9875
42.0689
-2.28554
-2.31683
-2.35499
-2.40088
-2.45432
-2.51554
-2.58979
-2.67975
-2.76606
-2.82173
-2.86638
-2.8944
-3.03318
-3.39113
-3.79061
-4.03477
-3.91855
0.403693
18.4916
-2.4483
-2.48048
-2.518
-2.56139
-2.60981
-2.66198
-2.7201
-2.78801
-2.85108
-2.9001
-2.95249
-3.03409
-3.19463
-3.42923
-3.61784
-3.63356
-3.44626
-2.73444
5.00782
-2.60547
-2.63794
-2.67421
-2.71462
-2.75851
-2.80505
-2.85485
-2.91124
-2.96621
-3.02161
-3.09286
-3.19484
-3.33475
-3.4848
-3.52542
-3.31764
-3.00692
-2.78536
0.378547
-2.75767
-2.79016
-2.82516
-2.86286
-2.90289
-2.94517
-2.99048
-3.04116
-3.09508
-3.15889
-3.24285
-3.34978
-3.47469
-3.5875
-3.59837
-3.42717
-3.97528
-2.03621
-0.995885
-2.90577
-2.938
-2.97183
-3.00733
-3.04442
-3.08361
-3.12616
-3.17428
-3.22926
-3.29769
-3.38522
-3.49038
-3.60559
-3.70753
-3.73584
-3.76195
-4.07169
-2.41598
-0.359327
-3.05066
-3.08235
-3.11503
-3.14874
-3.18367
-3.22078
-3.26165
-3.30853
-3.36386
-3.43231
-3.51688
-3.61496
-3.71978
-3.814
-3.8545
-4.06216
-4.13955
-2.8003
-0.826907
-3.19284
-3.2238
-3.25533
-3.28752
-3.32078
-3.35637
-3.39603
-3.44177
-3.49578
-3.56096
-3.63861
-3.72535
-3.8144
-3.89576
-3.94543
-4.2184
-3.87768
-3.25471
-1.15911
-3.33241
-3.36259
-3.39298
-3.42378
-3.45557
-3.48979
-3.52823
-3.57252
-3.62406
-3.68428
-3.75303
-3.82559
-3.89275
-3.94423
-3.95901
-4.07885
-4.23613
-4.39412
-2.26364
-3.46932
-3.49872
-3.52801
-3.55746
-3.58778
-3.62052
-3.65749
-3.70004
-3.74881
-3.80401
-3.86439
-3.92426
-3.9715
-3.98753
-3.92315
-3.75798
-3.68402
-4.36481
-2.09131
-3.60367
-3.63224
-3.66042
-3.68852
-3.71727
-3.74828
-3.78344
-3.82402
-3.87027
-3.92175
-3.97702
-4.03158
-4.07615
-4.09298
-4.02061
-3.84316
-4.20931
-4.41499
-1.2659
-3.73571
-3.76331
-3.79034
-3.81707
-3.84414
-3.87318
-3.90615
-3.94444
-3.9884
-4.03766
-4.09156
-4.14876
-4.20696
-4.25834
-4.26537
-4.41154
-4.94622
-4.15463
-0.778193
-3.86575
-3.89218
-3.91794
-3.94323
-3.96859
-3.9955
-4.02594
-4.06148
-4.10283
-4.15019
-4.20412
-4.26629
-4.34007
-4.4228
-4.4847
-4.71509
-5.13523
-3.8754
-0.693591
-3.99404
-4.01903
-4.04334
-4.06707
-4.09065
-4.1154
-4.14311
-4.17537
-4.21319
-4.25742
-4.30973
-4.37369
-4.45552
-4.55533
-4.6538
-4.90939
-4.76544
-4.597
-1.85764
-4.12069
-4.14399
-4.1666
-4.18855
-4.21023
-4.23275
-4.25762
-4.28619
-4.31941
-4.3584
-4.40531
-4.4642
-4.54139
-4.64122
-4.76561
-4.99789
-5.13155
-5.69433
-4.11525
-4.24579
-4.26717
-4.28781
-4.3077
-4.32721
-4.34734
-4.36924
-4.39386
-4.42177
-4.4538
-4.49173
-4.53869
-4.59803
-4.66831
-4.73471
-4.79029
-4.90056
-5.42003
-5.70496
-4.36936
-4.38867
-4.40715
-4.42472
-4.44176
-4.45921
-4.47796
-4.49846
-4.52092
-4.54567
-4.57368
-4.60658
-4.64586
-4.68673
-4.70885
-4.70727
-4.70771
-4.81598
-5.13953
-4.49145
-4.50865
-4.52487
-4.53998
-4.55436
-4.5689
-4.58442
-4.60072
-4.61804
-4.63649
-4.65618
-4.67766
-4.70156
-4.72375
-4.72362
-4.69945
-4.62985
-4.61928
-3.8289
-4.61212
-4.62727
-4.64124
-4.65393
-4.66565
-4.6773
-4.68961
-4.70213
-4.71522
-4.72873
-4.74224
-4.75571
-4.76932
-4.78125
-4.7739
-4.71988
-4.69139
-4.75436
-4.6729
-4.73156
-4.74468
-4.7565
-4.76691
-4.77618
-4.78512
-4.79434
-4.80404
-4.81378
-4.82343
-4.83251
-4.84018
-4.84701
-4.85344
-4.84163
-4.77006
-4.80794
-4.96378
-4.50623
-4.85
-4.86109
-4.87086
-4.87917
-4.88625
-4.89283
-4.89949
-4.90674
-4.91382
-4.92071
-4.92683
-4.93016
-4.93308
-4.93904
-4.93693
-4.88753
-4.99288
-4.97543
-4.63062
-4.96774
-4.97683
-4.9846
-4.99096
-4.99613
-5.00077
-5.00544
-5.01046
-5.01579
-5.0211
-5.02567
-5.02753
-5.03136
-5.04148
-5.05224
-5.04132
-5.12346
-5.11256
-4.74111
-5.08511
-5.09222
-5.09808
-5.10264
-5.10613
-5.10918
-5.11237
-5.11592
-5.11985
-5.12447
-5.12937
-5.13379
-5.13928
-5.14926
-5.16283
-5.16619
-5.1675
-5.22874
-4.91167
-5.20244
-5.20768
-5.21172
-5.21467
-5.21673
-5.21845
-5.22046
-5.22297
-5.22579
-5.22914
-5.23362
-5.23993
-5.24466
-5.24771
-5.25306
-5.24661
-5.2104
-5.22865
-5.12892
-5.31995
-5.32346
-5.32587
-5.32747
-5.32849
-5.32924
-5.33032
-5.33193
-5.33372
-5.33536
-5.33704
-5.3391
-5.3407
-5.34035
-5.3382
-5.32864
-5.29508
-5.24755
-5.29571
-5.43768
-5.43965
-5.44064
-5.44131
-5.4421
-5.44259
-5.44328
-5.44434
-5.4453
-5.44545
-5.44437
-5.44178
-5.43733
-5.43048
-5.42115
-5.41304
-5.42802
-5.41356
-5.25736
-5.5554
-5.5561
-5.55585
-5.5562
-5.55837
-5.55999
-5.56147
-5.56285
-5.56356
-5.56275
-5.55962
-5.55344
-5.54315
-5.52682
-5.50111
-5.47221
-5.43708
-5.36738
-7.25024
-5.67221
-5.67204
-5.67101
-5.67211
-5.67604
-5.67893
-5.68162
-5.68382
-5.6849
-5.68407
-5.68051
-5.67352
-5.66215
-5.64292
-5.60776
-5.61325
-5.94652
-6.74994
-14.3679
)
;

boundaryField
{
    leftWall
    {
        type            calculated;
        value           nonuniform List<scalar> 
50
(
520.865
461.733
401.159
340.008
278.899
217.668
156.042
93.782
29.2573
-0.164551
-0.263665
-0.423653
-0.558231
-0.701945
-0.845444
-0.989209
-1.13292
-1.27637
-1.41944
-1.56203
-1.70409
-1.84565
-1.98672
-2.12733
-2.2675
-2.40727
-2.54663
-2.6856
-2.82419
-2.96239
-3.1002
-3.23764
-3.37471
-3.51141
-3.64776
-3.78376
-3.91942
-4.05477
-4.18981
-4.32455
-4.45902
-4.59323
-4.72722
-4.861
-4.9946
-5.12803
-5.26135
-5.39492
-5.52919
-5.66151
)
;
    }
    rightWall
    {
        type            calculated;
        value           nonuniform List<scalar> 
50
(
1381.57
1317
1247.63
1176.7
1104.15
1028.35
950.924
873.355
757.505
621.538
504.469
405.393
322.128
257.994
213.849
194.912
188.328
163.955
142.036
126.091
100.239
68.634
42.0689
18.4916
5.00782
0.378547
-0.995885
-0.359327
-0.826907
-1.15911
-2.26364
-2.09131
-1.2659
-0.778193
-0.693591
-1.85764
-4.11525
-5.70496
-5.13953
-3.8289
-4.6729
-4.50623
-4.63062
-4.74111
-4.91167
-5.12892
-5.29571
-5.25736
-7.25024
-14.3679
)
;
    }
    lowerWall
    {
        type            calculated;
        value           nonuniform List<scalar> 
62
(
550.295
549.186
554.111
562.774
574.218
587.449
602.35
618.958
637.237
657.041
678.138
700.258
723.098
746.384
769.817
793.124
816.064
838.29
859.31
877.137
888.914
898.2
914.239
885.067
824.345
766.031
710.557
657.283
606.566
558.949
514.562
559.406
585.906
611.718
639.718
938.074
947.72
1033.87
1012.26
952.733
932.321
930.885
817.255
939.334
850.64
619.984
420.226
341.646
330.83
335.096
341.272
357.995
382.073
411.911
465.536
586.415
823.563
1128.13
1371
1480.31
1472.31
1409
)
;
    }
    atmosphere
    {
        type            calculated;
        value           nonuniform List<scalar> 
46
(
-5.72915
-5.73141
-5.73211
-5.73235
-5.73247
-5.73254
-5.73256
-5.73256
-5.73253
-5.73248
-5.73241
-5.73233
-5.73223
-5.73212
-5.73201
-5.73189
-5.73177
-5.73164
-5.73151
-5.73137
-5.73119
-5.73097
-5.73067
-5.7304
-5.73022
-5.73004
-5.72985
-5.72955
-5.72919
-5.72904
-5.72904
-5.72904
-5.72904
-5.72904
-5.72904
-5.72904
-5.72904
-5.72904
-5.72904
-5.72904
-5.72904
-5.72905
-5.72932
-5.82074
-6.24964
-26.3697
)
;
    }
    defaultFaces
    {
        type            empty;
    }
}


// ************************************************************************* //
