/*--------------------------------*- C++ -*----------------------------------*\
| =========                 |                                                 |
| \\      /  F ield         | OpenFOAM: The Open Source CFD Toolbox           |
|  \\    /   O peration     | Version:  v2012                                 |
|   \\  /    A nd           | Website:  www.openfoam.com                      |
|    \\/     M anipulation  |                                                 |
\*---------------------------------------------------------------------------*/
FoamFile
{
    version     2.0;
    format      ascii;
    class       volScalarField;
    location    "0.65";
    object      p_rgh;
}
// * * * * * * * * * * * * * * * * * * * * * * * * * * * * * * * * * * * * * //

dimensions      [1 -1 -2 0 0 0 0];


internalField   nonuniform List<scalar> 
2268
(
550.295
549.186
554.111
562.774
574.218
587.449
602.35
618.958
637.237
657.041
678.138
700.258
723.098
746.384
769.817
793.124
816.064
838.29
859.31
877.137
888.914
898.2
914.239
550.021
548.257
552.508
561.376
572.808
586.127
601.204
618.028
636.518
656.499
677.731
699.955
722.9
746.289
769.882
793.449
816.803
839.639
861.349
880.31
890.611
894.764
912.332
548.306
546.923
551.758
560.282
571.556
584.856
600.022
617.021
635.718
655.9
677.3
699.671
722.755
746.287
770.058
793.844
817.501
840.704
862.758
882.224
896.388
893.565
912.673
546.014
545.265
550.733
559.229
570.372
583.591
598.759
615.882
634.769
655.173
676.782
699.35
722.632
746.384
770.326
794.314
818.184
841.582
863.807
883.33
898.867
900.469
916.273
543.764
543.599
549.517
558.061
569.074
582.176
597.272
614.498
633.575
654.246
676.103
698.919
722.451
746.446
770.643
794.869
818.965
842.545
864.982
884.682
901.563
908.373
922.095
541.391
542.135
548.043
556.665
567.535
580.485
595.439
612.779
632.106
653.035
675.215
698.334
722.173
746.472
770.98
795.509
819.907
843.737
866.535
887.082
904.725
914.222
930.174
538.623
540.458
546.165
554.811
565.536
578.384
593.076
610.618
630.224
651.52
674.119
697.604
721.798
746.45
771.319
796.223
821.012
845.168
868.455
890.04
909.054
921.607
941.355
535.222
536.38
540.476
550.385
562.106
575.115
589.509
607.314
627.452
649.416
672.741
696.735
721.36
746.41
771.67
796.992
822.216
846.758
870.632
893.449
914.483
931.19
955.799
939.334
850.64
619.984
420.226
341.646
330.83
335.096
341.272
357.995
382.073
411.911
465.536
586.415
823.563
1128.13
1371
1480.31
1472.31
1409
961.27
751.293
391.39
259.45
261.65
301.688
317.432
327.799
346.183
367.99
391.183
435.674
537.58
750.852
1044.01
1292.81
1423.96
1445.8
1404.87
1101.82
554.22
263.009
234.09
232.972
232.745
231.446
233.83
274.069
333.986
371.327
409.087
484.038
671.716
959.037
1216.44
1368.62
1419.07
1393.25
1089.48
457.407
251.733
234.309
233.615
232.956
231.827
230.395
228.627
227.864
242.592
333.193
428.476
596.583
886.879
1157.23
1323.51
1381.73
1361.65
979.788
452.157
260.608
234.803
233.743
232.998
231.683
230.177
228.78
228.163
227.857
227.22
289.266
518.577
825.077
1109.68
1284.3
1360.58
1338.73
972.811
554.292
294.25
232.756
233.016
232.671
231.543
230.038
228.684
227.994
227.771
227.56
229.18
391.782
778.698
1071.51
1247.15
1339.43
1315.05
1124.94
888.14
538.731
322.521
229.502
231.072
231.072
229.848
228.516
227.834
227.604
227.486
227.669
291.697
719.764
1043
1215.24
1304.76
1289.77
1256.75
1004.1
684.965
512.757
283.345
225.121
229.893
229.357
228.223
227.629
227.457
227.414
227.67
249.693
624.565
1024.01
1189.06
1276.63
1264.47
281.932
286.629
303.639
334.68
371.389
416.605
470.485
527.449
581.98
629.653
668.593
694.56
720.249
746.17
772.2
798.234
824.148
849.265
874.058
898.802
923.369
947.909
981.914
0.49411
0.521394
0.573743
0.95184
9.37128
26.9166
53.9884
95.6135
156.819
242.303
356.824
493.118
612.095
706.851
771.648
799.854
827.699
852.829
877.574
903.511
929.467
955.774
988.37
0.52019
0.51173
0.51468
0.523978
0.538478
0.549942
0.55243
0.542697
0.531104
0.554487
3.85786
25.3372
85.2951
184.358
331.187
538.319
758.732
844.209
873.279
908.648
932.873
956.531
984.682
0.485397
0.488003
0.501185
0.51487
0.509454
0.502201
0.495696
0.48962
0.487789
0.497655
0.516219
0.509688
0.427993
0.354806
0.516361
13.5386
49.903
169.171
364.936
622.621
770.134
823.766
896.124
0.476013
0.475542
0.482022
0.489695
0.489538
0.487393
0.484678
0.481008
0.477971
0.475982
0.464982
0.435761
0.410093
0.402963
0.420378
0.421583
0.36723
0.227826
0.152709
0.176883
7.22606
80.7952
193.798
0.457494
0.458459
0.461846
0.465643
0.466553
0.466153
0.464624
0.462072
0.459067
0.455506
0.447283
0.430167
0.411627
0.399363
0.393465
0.380448
0.363911
0.356242
0.363354
0.384863
0.403261
0.343406
0.312922
0.439191
0.44022
0.442145
0.444122
0.444723
0.444232
0.442826
0.440601
0.437737
0.434106
0.428168
0.417726
0.404325
0.392341
0.383399
0.372401
0.358628
0.346187
0.345992
0.364643
0.39705
0.424666
0.449426
0.42062
0.42158
0.422748
0.423722
0.423882
0.423247
0.421897
0.419881
0.417225
0.413764
0.408792
0.401437
0.392392
0.383747
0.376548
0.368773
0.359686
0.351859
0.352357
0.36548
0.38868
0.413393
0.447607
0.402106
0.402833
0.403532
0.403929
0.403763
0.403016
0.401718
0.399888
0.397516
0.394478
0.390441
0.385115
0.378926
0.372843
0.367404
0.362059
0.35693
0.353874
0.356378
0.366554
0.383241
0.403552
0.43221
0.383847
0.384269
0.384621
0.384665
0.384272
0.383429
0.38216
0.380483
0.378397
0.37584
0.372667
0.368789
0.364435
0.360075
0.356035
0.352331
0.349389
0.348446
0.351313
0.359131
0.371581
0.387511
0.408221
0.365976
0.366095
0.366152
0.365951
0.36539
0.364466
0.363209
0.361649
0.359803
0.357655
0.355151
0.352269
0.349121
0.345933
0.342905
0.340187
0.338184
0.3377
0.339752
0.345002
0.353368
0.36406
0.376827
0.348576
0.348427
0.348219
0.347816
0.347115
0.346115
0.344852
0.343367
0.341695
0.339847
0.337811
0.335581
0.333199
0.330752
0.328335
0.326076
0.324274
0.323431
0.324119
0.326674
0.330991
0.336372
0.342058
0.331711
0.331307
0.330871
0.330284
0.329448
0.328363
0.327068
0.325615
0.324047
0.322391
0.320652
0.318817
0.31688
0.314838
0.312694
0.310503
0.308442
0.306804
0.305887
0.305803
0.30636
0.306925
0.306529
0.315344
0.31477
0.314123
0.313359
0.312387
0.311202
0.309848
0.308379
0.306847
0.305287
0.303704
0.302079
0.300363
0.298486
0.296376
0.294004
0.291431
0.288799
0.286229
0.283689
0.280921
0.277305
0.271824
0.29947
0.298772
0.297957
0.297034
0.295925
0.294627
0.293184
0.291654
0.290093
0.28854
0.287001
0.285445
0.283792
0.281923
0.2797
0.277016
0.273831
0.270168
0.266035
0.26131
0.255691
0.248588
0.238978
0.284058
0.283282
0.282342
0.281281
0.280043
0.278625
0.277071
0.275441
0.273792
0.272167
0.270574
0.268973
0.267267
0.265297
0.262875
0.259822
0.25601
0.251371
0.245834
0.239233
0.231256
0.221351
0.208521
0.269077
0.268264
0.267238
0.266065
0.264712
0.263177
0.261501
0.259742
0.257959
0.256198
0.254469
0.252732
0.25088
0.248733
0.246061
0.242624
0.238219
0.232699
0.225937
0.217752
0.207857
0.195764
0.180541
0.254508
0.253687
0.252609
0.251351
0.249899
0.248257
0.246459
0.24456
0.242616
0.240675
0.238752
0.236812
0.234748
0.232372
0.229428
0.225629
0.220703
0.21443
0.206632
0.197123
0.185666
0.171868
0.154899
0.240338
0.239528
0.238424
0.237104
0.235573
0.233837
0.231928
0.22989
0.227778
0.225637
0.223488
0.221303
0.218987
0.216356
0.213146
0.209037
0.2037
0.196842
0.188227
0.177656
0.164939
0.149791
0.13151
0.226559
0.225771
0.224658
0.223297
0.221706
0.219894
0.217886
0.215723
0.213451
0.211113
0.208729
0.206284
0.203697
0.200802
0.197342
0.192988
0.18737
0.180129
0.17096
0.159629
0.145966
0.129773
0.11047
0.213169
0.212405
0.211295
0.209908
0.208274
0.206403
0.204317
0.202048
0.199637
0.197117
0.194509
0.191805
0.188944
0.185782
0.182089
0.177544
0.171761
0.164335
0.154894
0.14314
0.128891
0.111995
0.091954
0.200165
0.199423
0.198321
0.196921
0.19526
0.193349
0.191205
0.188855
0.18633
0.183654
0.180845
0.177899
0.174771
0.171344
0.167423
0.162715
0.156842
0.14938
0.139908
0.12806
0.113606
0.0963964
0.0759724
0.187543
0.18682
0.185728
0.184326
0.182652
0.180719
0.178538
0.176132
0.173522
0.170722
0.167743
0.164584
0.161209
0.157527
0.153377
0.148509
0.142573
0.135151
0.1258
0.114107
0.0997843
0.0826424
0.0622179
0.175299
0.174591
0.173511
0.172115
0.170443
0.168504
0.166308
0.163872
0.161206
0.158316
0.155206
0.151872
0.148283
0.14437
0.139999
0.134964
0.128952
0.121583
0.112415
0.101012
0.0870395
0.0702631
0.0501909
0.163427
0.162733
0.161666
0.160282
0.158625
0.156697
0.154506
0.152065
0.149373
0.146429
0.143231
0.139769
0.136015
0.131908
0.127343
0.122142
0.116043
0.108702
0.0997102
0.0886317
0.075108
0.0588634
0.0393831
0.15192
0.151238
0.150185
0.148823
0.147191
0.145289
0.143124
0.1407
0.138012
0.135053
0.131813
0.128276
0.124414
0.12017
0.115454
0.110116
0.103933
0.0966034
0.0877585
0.0769819
0.0639158
0.0482593
0.0294871
0.140769
0.140099
0.139063
0.137729
0.136132
0.134272
0.132151
0.129767
0.127112
0.124174
0.120939
0.117385
0.113477
0.109164
0.104361
0.0989389
0.092707
0.0854008
0.0766878
0.0661874
0.0535533
0.0384791
0.0204602
0.129962
0.129305
0.128289
0.126991
0.12544
0.123634
0.121573
0.119251
0.116657
0.113777
0.110591
0.107073
0.103185
0.0988743
0.0940618
0.0886317
0.0824149
0.0751776
0.0666212
0.0563999
0.0441858
0.0296853
0.0124472
0.119489
0.118845
0.117856
0.116599
0.115103
0.113363
0.111377
0.109136
0.106628
0.103837
0.100741
0.0973098
0.0935038
0.0892685
0.0845286
0.0791773
0.0730608
0.0659673
0.0576266
0.0477256
0.0359659
0.0220701
0.00561494
0.109338
0.108709
0.107753
0.106543
0.105108
0.103444
0.101545
0.0994027
0.0970042
0.0943313
0.0913607
0.0880614
0.0843924
0.0802996
0.0757108
0.0705258
0.0646018
0.0577442
0.0497072
0.040207
0.0289767
0.0157705
0.00014243
0.0994963
0.0988861
0.0979653
0.0968052
0.0954363
0.0938563
0.0920563
0.0900291
0.0877604
0.0852313
0.0824179
0.0792889
0.0758038
0.0719107
0.0675417
0.0626027
0.0569604
0.0504357
0.0428042
0.0338079
0.0232063
0.0107815
-0.00389771
0.0899475
0.0893574
0.0884734
0.0873649
0.0860669
0.0845781
0.0828885
0.0809917
0.078871
0.0765074
0.0738771
0.0709493
0.0676858
0.0640386
0.0599455
0.0553198
0.0500382
0.0439364
0.0368097
0.0284234
0.018561
0.00702961
-0.00657606
0.080673
0.0800974
0.0792493
0.0781946
0.0769743
0.0755851
0.0740184
0.0722649
0.070307
0.0681264
0.0656996
0.0629974
0.0599849
0.0566197
0.0528465
0.0485871
0.04373
0.0381257
0.0315886
0.0239065
0.0148865
0.00435968
-0.00805037
0.0716527
0.0710735
0.0702593
0.0692623
0.0681281
0.0668491
0.0654171
0.0638185
0.0620362
0.0600526
0.0578455
0.055388
0.0526495
0.0495934
0.0461724
0.0423181
0.0379316
0.0328796
0.0269955
0.0200903
0.0119952
0.00256428
-0.00854665
0.0628637
0.0622494
0.0614647
0.0605326
0.0594943
0.0583376
0.0570519
0.0556194
0.054024
0.0522493
0.0502749
0.0480771
0.0456295
0.042902
0.0398552
0.0364311
0.0325447
0.0280795
0.0228886
0.016807
0.00969003
0.00141526
-0.00832545
0.0542786
0.0535834
0.0528203
0.0519656
0.0510369
0.0500178
0.0488904
0.0476351
0.0462367
0.0446805
0.042949
0.041022
0.0388778
0.0364923
0.0338337
0.0308544
0.027483
0.0236206
0.0191411
0.0139034
0.00778755
0.000694389
-0.00764526
0.0458737
0.0450275
0.0442742
0.0435166
0.0427199
0.0418568
0.040901
0.0398333
0.0386405
0.0373107
0.0358297
0.0341813
0.032349
0.030314
0.0280512
0.0255224
0.0226701
0.0194129
0.0156461
0.0112517
0.00613284
0.000212622
-0.00673591
0.0376373
0.0365381
0.0357753
0.0351413
0.0345075
0.0338212
0.0330512
0.0321801
0.0311987
0.0300995
0.028873
0.0275082
0.0259933
0.024314
0.0224505
0.0203737
0.0180394
0.0153834
0.0123199
0.00875227
0.00460438
-0.000180181
-0.00578057
0.0295059
0.0280715
0.0272765
0.0268183
0.026391
0.0259015
0.0253244
0.0246512
0.0238809
0.0230125
0.0220426
0.020965
0.0197715
0.018451
0.0169887
0.0153635
0.0135435
0.0114795
0.00910301
0.00633769
0.0031262
-0.000570646
-0.00488648
0.0211303
0.0194271
0.0186388
0.0185937
0.0184687
0.0181831
0.0177858
0.017298
0.0167295
0.0160864
0.0153702
0.0145777
0.0137032
0.012738
0.011672
0.0104914
0.00917444
0.00768662
0.00597807
0.00399209
0.001687
-0.000964274
-0.00405741
0.0120591
0.00978909
0.00939094
0.010447
0.0107769
0.0106732
0.0104205
0.0100934
0.00971257
0.00928803
0.00882223
0.0083125
0.00775414
0.00714084
0.00646593
0.00572162
0.0048958
0.00396937
0.0029136
0.00169442
0.000286841
-0.00132803
-0.0032062
0.0049283
-0.00205331
-0.000886958
0.00135696
0.00191753
0.0019516
0.00186105
0.0017313
0.00158789
0.00144016
0.00128896
0.00113155
0.000964551
0.000783748
0.000584348
0.000362188
0.000113297
-0.000167058
-0.000485772
-0.000850894
-0.00126672
-0.00173833
-0.00227379
1030.12
1056.62
1082.43
1110.48
1020.02
1038.21
1053.22
1065.34
1007.82
1022.05
1034.79
1045.82
960.753
994.574
1017.59
1038.8
308.49
381.12
431.505
496.224
0.383935
0.548862
0.97889
1.71746
0.480924
0.51022
0.559444
0.629312
0.494994
0.534833
0.57458
0.582506
0.464754
0.487812
0.511092
0.52469
0.428268
0.441118
0.453703
0.463124
0.38721
0.393227
0.39904
0.403125
0.344928
0.345419
0.345282
0.343932
0.303316
0.29919
0.293877
0.287572
0.263615
0.255678
0.246173
0.235901
0.226703
0.215632
0.202798
0.189541
0.193087
0.179526
0.164058
0.148541
0.162888
0.147553
0.130123
0.11286
0.135832
0.11944
0.100779
0.0822869
0.111519
0.0945681
0.0753261
0.0561781
0.0897399
0.072411
0.0529388
0.0335965
0.0705564
0.0528214
0.033153
0.0138056
0.0540782
0.0359259
0.0159714
-0.00341606
0.0401634
0.021751
0.00152048
-0.0179769
0.028367
0.00998623
-0.01032
-0.0298637
0.0181173
8.79034e-05
-0.0199696
-0.0393386
0.0089784
-0.00844937
-0.0279289
-0.0468175
0.000794883
-0.0158832
-0.0345373
-0.0526615
-0.00634912
-0.0222159
-0.0399029
-0.0570606
-0.0122633
-0.0272985
-0.0439626
-0.0600454
-0.016794
-0.030982
-0.0466051
-0.0615846
-0.0198318
-0.0331697
-0.0477614
-0.061621
-0.0214154
-0.0338613
-0.0474099
-0.0601688
-0.0216848
-0.033173
-0.0456441
-0.0572975
-0.0208688
-0.0313225
-0.0426598
-0.0531845
-0.0192496
-0.0285948
-0.038731
-0.0480842
-0.0171198
-0.0252985
-0.0341741
-0.0423117
-0.0147484
-0.0217292
-0.0293068
-0.0362
-0.0123491
-0.0181236
-0.0243892
-0.0300313
-0.0100464
-0.0146234
-0.0195845
-0.0239948
-0.00784097
-0.0112241
-0.014886
-0.0180949
-0.005541
-0.00767503
-0.0100037
-0.0120334
-0.00299432
-0.00368553
-0.00445255
-0.00511848
1166.05
1007.48
714.633
503.937
264.336
220.723
227.097
228.068
227.507
227.191
227.19
227.283
227.541
233.554
565.531
1015.01
1164
1245.11
1242.08
1080.46
993.439
519.077
220.89
237.149
227.871
225.661
226.395
226.349
226.42
226.739
227.068
227.327
227.881
589.44
1050.72
1167.43
1232.76
1248.32
1058.93
1024
559.138
218.942
220.621
226.145
225.299
225.474
225.5
225.796
226.411
226.874
227.19
227.978
818.404
1108.79
1192.16
1239.4
1215.41
1069.82
1074.28
949.55
222.782
223.173
224.412
225.59
225.303
225.292
225.698
226.355
226.836
226.917
465.423
991.621
1162.27
1134.04
1245.17
1229.87
698.073
1089.34
1121.72
669.092
224.105
225.705
225.953
225.711
225.721
226.182
226.736
226.933
269.687
809.721
1068.28
857.117
993.663
1290.63
1266.55
49.8125
552.458
1159.84
1230.5
527.264
225.615
226.089
226.049
226.232
226.754
227.337
226.822
783.321
996.982
902.028
510.717
717.525
1340.78
1308.39
0.724986
0.759869
423.64
1206.23
1216.61
511.935
225.795
225.96
226.232
226.894
226.836
537.064
1105.67
1093.28
743.475
413.604
420.528
964.263
1358.01
0.53494
0.553443
0.736131
462.292
1175.73
1191.85
594.425
225.48
225.814
225.526
297.249
1172.11
1237.01
1035.74
484.502
423.854
430.263
521.324
1447.35
0.530115
0.561149
0.584425
10.1787
491.178
1129.4
1190.79
801.83
224.261
321.426
1170.42
1312.23
1328.08
739.195
409.355
424.726
472.404
511.99
1094.21
0.475691
0.498498
0.546567
0.520492
8.26046
427.803
1021.45
1102.19
965.96
1242.93
1387
1387.94
1157.38
388.356
366.906
502.771
532.568
546.934
527.442
0.40838
0.413719
0.422445
0.424246
0.428992
2.66339
260.147
862.254
1322
1444.16
1443.93
1403.37
601.228
290.916
223.289
364.794
477.07
552.515
532.175
0.341169
0.33393
0.318438
0.290287
0.268897
0.378223
1.10741
85.2303
477.976
969.951
1217.75
634.26
41.1954
38.8004
20.3697
37.191
93.5036
521.867
572.482
0.277422
0.260856
0.234631
0.191964
0.139853
0.131316
0.175405
0.182046
1.49415
46.8027
132.274
8.16777
1.64157
1.66548
2.19245
13.0777
229.636
397.07
531.416
0.219894
0.195742
0.162929
0.116445
0.0521545
-0.0199619
-0.0877966
-0.0987127
0.286584
-0.473427
-0.0789459
-0.0220114
-0.0951318
-0.659111
-1.32848
8.5733
443.721
485.473
457.381
0.169506
0.140532
0.103588
0.0566159
-0.00313011
-0.0776722
-0.168641
-0.120424
0.364552
-0.472722
-0.462623
-0.419345
-0.492753
-1.00494
-1.49835
-1.91829
236.995
491.706
494.803
0.125843
0.094557
0.056399
0.010509
-0.0429375
-0.104148
-0.172739
0.0506955
-0.2269
-0.399296
-0.440389
-0.469159
-0.610703
-0.966653
-1.36857
-1.61557
-1.499
499.168
516.902
0.0882803
0.0561032
0.01858
-0.0248108
-0.073232
-0.125397
-0.172727
0.00223541
-0.311154
-0.361717
-0.413055
-0.49486
-0.656029
-0.881391
-0.929952
-1.09129
-0.899243
280.495
528.252
0.0563034
0.0238344
-0.0124343
-0.052847
-0.0967398
-0.143278
-0.181589
-0.2233
-0.303355
-0.359492
-0.430521
-0.532555
-0.672619
-0.809926
-0.667887
-0.647997
3.24341
45.915
490.484
0.0292981
-0.00318859
-0.0381869
-0.0758928
-0.115923
-0.1582
-0.200163
-0.253534
-0.307863
-0.371851
-0.455763
-0.562706
-0.687651
-0.800419
-0.702199
-0.640113
154.216
120.27
133.839
0.00639017
-0.0258398
-0.0596642
-0.0951674
-0.132251
-0.171445
-0.213993
-0.262015
-0.317056
-0.385508
-0.473032
-0.578193
-0.69342
-0.795324
-0.823615
-0.849729
260.833
270.407
143.993
-0.0133021
-0.0449876
-0.0776679
-0.111385
-0.146315
-0.183425
-0.224294
-0.27115
-0.326488
-0.394944
-0.479514
-0.577592
-0.682419
-0.776238
-0.817059
-1.02472
279.417
281.851
165.325
-0.0302889
-0.0612448
-0.0927751
-0.124968
-0.158229
-0.193817
-0.233473
-0.279218
-0.333224
-0.398401
-0.476057
-0.562791
-0.651841
-0.730422
-0.782584
-1.05563
137.499
293.13
185.022
-0.0446656
-0.0748436
-0.105235
-0.136032
-0.167824
-0.202046
-0.24048
-0.284774
-0.336312
-0.396527
-0.465279
-0.537838
-0.605
-0.653612
-0.671053
-0.790902
-0.945522
276.455
360.565
-0.0563822
-0.0857816
-0.115064
-0.144516
-0.174835
-0.207576
-0.244549
-0.2871
-0.335861
-0.391063
-0.451447
-0.51132
-0.558555
-0.571777
-0.510198
-0.344968
-0.256326
253.265
377.028
-0.0655338
-0.0941051
-0.122282
-0.150381
-0.179128
-0.210111
-0.245264
-0.285886
-0.332129
-0.383616
-0.438882
-0.493437
-0.538016
-0.554611
-0.482466
-0.311649
135.848
370.774
390.027
-0.0723779
-0.0999836
-0.127013
-0.153733
-0.180809
-0.209764
-0.242729
-0.281062
-0.325062
-0.374326
-0.428228
-0.48543
-0.543628
-0.595009
-0.602034
-0.748446
392.057
400.781
402.799
-0.0772274
-0.103653
-0.129418
-0.154699
-0.180053
-0.206894
-0.237323
-0.272868
-0.314281
-0.361661
-0.415594
-0.47776
-0.55154
-0.634274
-0.696169
0.140069
411.521
414.546
417.444
-0.0803186
-0.105308
-0.129619
-0.153339
-0.176918
-0.201646
-0.229293
-0.261559
-0.299388
-0.34369
-0.396002
-0.459964
-0.541795
-0.641604
-0.740073
-0.995657
213.39
427.642
428.835
-0.0817791
-0.105077
-0.127683
-0.149628
-0.171294
-0.193829
-0.218686
-0.247196
-0.280417
-0.319463
-0.366394
-0.425284
-0.502477
-0.601569
-0.726266
-0.958895
0.985567
440.361
441.716
-0.0816774
-0.103058
-0.1237
-0.14359
-0.163088
-0.183227
-0.205133
-0.229743
-0.257641
-0.289673
-0.327623
-0.374577
-0.433916
-0.501349
-0.568994
-0.626039
-0.736175
361.031
454.646
-0.080057
-0.0993656
-0.117844
-0.135414
-0.152452
-0.169906
-0.184865
-0.209067
-0.231612
-0.256369
-0.284371
-0.317279
-0.354537
-0.394482
-0.417822
-0.41771
1.67743
92.7776
467.758
-0.0769485
-0.0941481
-0.110371
-0.125483
-0.13986
-0.154407
-0.158929
-0.186138
-0.203535
-0.221985
-0.241676
-0.263149
-0.284495
-0.306615
-0.308739
-0.284639
5.41841
24.5535
364.069
-0.0724252
-0.0875772
-0.101553
-0.114235
-0.125961
-0.137608
-0.146438
-0.104541
-0.0895427
-0.115923
-0.162047
-0.203086
-0.229148
-0.241241
-0.233897
-0.179874
-0.151376
68.6182
95.6871
-0.0666747
-0.0797896
-0.0916143
-0.102021
-0.111292
-0.120229
-0.129452
-0.0413577
-0.0500338
-0.0589247
-0.0690388
-0.15614
-0.181754
-0.188232
-0.176423
-0.10485
-0.142461
172.085
132.236
-0.0599188
-0.0710124
-0.0807761
-0.0890844
-0.0961728
-0.102748
-0.109406
-0.0878399
-0.0217391
-0.0286933
-0.0585145
-0.138303
-0.142571
-0.148573
-0.143944
-0.0949492
-0.201939
178.853
234.05
-0.0524602
-0.0615529
-0.0693215
-0.0756843
-0.0808562
-0.085491
-0.0901672
-0.0951821
-0.0762196
-0.0690766
-0.0876481
-0.0674368
0.228074
0.815094
0.896521
0.276645
-0.205714
31.0038
240.778
-0.0446386
-0.0517516
-0.05761
-0.0621747
-0.0656622
-0.0686891
-0.0718337
-0.0754097
-0.079304
-0.0838952
-0.0888046
0.474557
0.956646
0.951023
0.937451
0.92711
-0.0267911
-0.150669
242.599
-0.0367746
-0.0420114
-0.0460591
-0.0490039
-0.0510645
-0.0527639
-0.0547171
-0.0572596
-0.0601078
-0.0634681
-0.067946
0.0800038
0.485637
1.00385
0.998738
0.838173
0.00541158
-0.0393186
143.069
-0.0290927
-0.0325995
-0.0350153
-0.0366072
-0.0376307
-0.0383726
-0.0394401
-0.0410439
-0.0428483
-0.0444971
-0.0461793
-0.0482487
-0.0480706
0.151598
0.207444
0.0618985
-0.00415761
0.0474131
130.169
-0.0216249
-0.0236004
-0.0245872
-0.0252596
-0.0260435
-0.0265364
-0.0272266
-0.0282751
-0.0292331
-0.0293946
-0.0283157
-0.0257272
-0.0212636
-0.014368
-0.00506424
0.00302435
-0.0119673
27.1186
156.82
-0.014152
-0.0148493
-0.0145992
-0.0149485
-0.0171203
-0.0187378
-0.0202241
-0.0216033
-0.0223131
-0.0214976
-0.0183691
-0.0121869
-0.00190457
0.0144353
0.040142
0.069048
0.104164
0.173869
145.351
-0.00576728
-0.00559604
-0.00456536
-0.00566479
-0.00959622
-0.0124917
-0.0151788
-0.0173755
-0.0184609
-0.0176242
-0.014066
-0.00707527
0.00428982
0.0235299
0.0586914
0.0532017
-0.280078
-1.0835
11.7137
)
;

boundaryField
{
    leftWall
    {
        type            fixedFluxPressure;
        gradient        uniform 0;
        value           nonuniform List<scalar> 
50
(
550.295
550.021
548.306
546.014
543.764
541.391
538.623
535.222
281.932
0.49411
0.52019
0.485397
0.476013
0.457494
0.439191
0.42062
0.402106
0.383847
0.365976
0.348576
0.331711
0.315344
0.29947
0.284058
0.269077
0.254508
0.240338
0.226559
0.213169
0.200165
0.187543
0.175299
0.163427
0.15192
0.140769
0.129962
0.119489
0.109338
0.0994963
0.0899475
0.080673
0.0716527
0.0628637
0.0542786
0.0458737
0.0376373
0.0295059
0.0211303
0.0120591
0.0049283
)
;
    }
    rightWall
    {
        type            fixedFluxPressure;
        gradient        uniform 0;
        value           nonuniform List<scalar> 
50
(
1409
1404.87
1393.25
1361.65
1338.73
1315.05
1289.77
1264.47
1242.08
1248.32
1215.41
1229.87
1266.55
1308.39
1358.01
1447.35
1094.21
527.442
532.175
572.482
531.416
457.381
494.803
516.902
528.252
490.484
133.839
143.993
165.325
185.022
360.565
377.028
390.027
402.799
417.444
428.835
441.716
454.646
467.758
364.069
95.6871
132.236
234.05
240.778
242.599
143.069
130.169
156.82
145.351
11.7137
)
;
    }
    lowerWall
    {
        type            fixedFluxPressure;
        gradient        uniform 0;
        value           nonuniform List<scalar> 
62
(
550.295
549.186
554.111
562.774
574.218
587.449
602.35
618.958
637.237
657.041
678.138
700.258
723.098
746.384
769.817
793.124
816.064
838.29
859.31
877.137
888.914
898.2
914.239
914.239
912.332
912.673
916.273
922.095
930.174
941.355
955.799
1030.12
1056.62
1082.43
1110.48
939.334
961.27
1101.82
1089.48
979.788
972.811
1124.94
1256.75
939.334
850.64
619.984
420.226
341.646
330.83
335.096
341.272
357.995
382.073
411.911
465.536
586.415
823.563
1128.13
1371
1480.31
1472.31
1409
)
;
    }
    atmosphere
    {
        type            totalPressure;
        rho             rho;
        psi             none;
        gamma           1;
        p0              uniform 0;
        value           nonuniform List<scalar> 
46
(
-0.000107339
-0.00236871
-0.00307295
-0.00331127
-0.00343381
-0.00349778
-0.00352399
-0.00352096
-0.00349301
-0.0034431
-0.00337393
-0.00328835
-0.00318952
-0.00308077
-0.00296551
-0.00284663
-0.00272585
-0.0026025
-0.00247235
-0.00232643
-0.00215033
-0.00192502
-0.00163108
-0.00136368
-0.00118309
-0.000996542
-0.000809296
-0.00051191
-0.000152239
-2.15719e-07
0
0
0
0
0
0
0
0
0
0
0
0
-0.000281602
-0.0917047
-0.520601
0
)
;
    }
    defaultFaces
    {
        type            empty;
    }
}


// ************************************************************************* //
