/*--------------------------------*- C++ -*----------------------------------*\
| =========                 |                                                 |
| \\      /  F ield         | OpenFOAM: The Open Source CFD Toolbox           |
|  \\    /   O peration     | Version:  v2012                                 |
|   \\  /    A nd           | Website:  www.openfoam.com                      |
|    \\/     M anipulation  |                                                 |
\*---------------------------------------------------------------------------*/
FoamFile
{
    version     2.0;
    format      ascii;
    class       surfaceScalarField;
    location    "0.95";
    object      alphaPhi0.water;
}
// * * * * * * * * * * * * * * * * * * * * * * * * * * * * * * * * * * * * * //

dimensions      [0 3 -1 0 0 0 0];
oriented        oriented;


internalField   nonuniform List<scalar> 
4432
(
-1.89508e-06
1.89508e-06
-5.05493e-06
3.15985e-06
-7.86053e-06
2.8056e-06
-1.03965e-05
2.53597e-06
-1.28626e-05
2.46609e-06
-1.5304e-05
2.44137e-06
-1.76769e-05
2.37289e-06
-1.991e-05
2.23317e-06
-2.19312e-05
2.02122e-06
-2.36662e-05
1.73499e-06
-2.5026e-05
1.35976e-06
-2.58881e-05
8.6215e-07
-2.60755e-05
1.8749e-07
-2.54242e-05
-6.51017e-07
-2.3417e-05
-1.59441e-06
-2.04252e-05
-2.60126e-06
-1.66075e-05
-3.92951e-06
-1.1428e-05
-5.29148e-06
-5.32914e-06
-6.21169e-06
4.17581e-07
-5.86083e-06
4.29317e-06
-3.98728e-06
4.43098e-06
-1.7396e-10
4.44707e-06
-3.5715e-06
5.46658e-06
-6.9218e-06
6.51015e-06
-9.79736e-06
5.68115e-06
-1.24857e-05
5.22431e-06
-1.51147e-05
5.0951e-06
-1.76438e-05
4.97043e-06
-2.00033e-05
4.73242e-06
-2.21299e-05
4.3598e-06
-2.39639e-05
3.85521e-06
-2.54348e-05
3.20596e-06
-2.64573e-05
2.38224e-06
-2.69471e-05
1.35193e-06
-2.68554e-05
9.58095e-08
-2.61055e-05
-1.40064e-06
-2.45196e-05
-3.17959e-06
-2.17579e-05
-5.32417e-06
-1.7712e-05
-7.89796e-06
-1.25704e-05
-1.0539e-05
-6.69756e-06
-1.22747e-05
-9.92071e-07
-1.17461e-05
3.01583e-06
-8.05361e-06
3.80524e-06
-7.8803e-07
8.26879e-06
-4.00984e-06
9.47642e-06
-7.07949e-06
9.57979e-06
-9.86853e-06
8.47018e-06
-1.25797e-05
7.93543e-06
-1.5218e-05
7.73341e-06
-1.77289e-05
7.48142e-06
-2.00549e-05
7.05834e-06
-2.21481e-05
6.45308e-06
-2.39618e-05
5.66887e-06
-2.5436e-05
4.68021e-06
-2.64945e-05
3.44073e-06
-2.7055e-05
1.9124e-06
-2.70396e-05
8.04066e-08
-2.63563e-05
-2.08391e-06
-2.48593e-05
-4.67661e-06
-2.23381e-05
-7.84536e-06
-1.86144e-05
-1.16216e-05
-1.37039e-05
-1.54495e-05
-8.01727e-06
-1.79613e-05
-2.40831e-06
-1.7355e-05
1.79408e-06
-1.2256e-05
3.22619e-06
-2.22013e-06
1.14988e-05
-4.0091e-06
1.34855e-05
-6.9535e-06
1.25242e-05
-9.74773e-06
1.12644e-05
-1.25014e-05
1.06891e-05
-1.51658e-05
1.03978e-05
-1.76859e-05
1.00015e-05
-2.00142e-05
9.38665e-06
-2.21134e-05
8.55228e-06
-2.39448e-05
7.50031e-06
-2.54547e-05
6.19007e-06
-2.65687e-05
4.55468e-06
-2.72009e-05
2.54464e-06
-2.72695e-05
1.48955e-07
-2.66924e-05
-2.66094e-06
-2.53508e-05
-6.01823e-06
-2.30511e-05
-1.0145e-05
-1.95871e-05
-1.50857e-05
-1.49218e-05
-2.01149e-05
-9.40267e-06
-2.34804e-05
-3.81444e-06
-2.29433e-05
6.56191e-07
-1.67267e-05
2.69936e-06
-4.26379e-06
1.41978e-05
-3.86979e-06
1.73553e-05
-6.78264e-06
1.5437e-05
-9.61339e-06
1.40951e-05
-1.24093e-05
1.34851e-05
-1.5103e-05
1.30915e-05
-1.76412e-05
1.25397e-05
-1.99846e-05
1.173e-05
-2.21047e-05
1.06724e-05
-2.39707e-05
9.36627e-06
-2.5534e-05
7.75341e-06
-2.6721e-05
5.74166e-06
-2.74426e-05
3.26629e-06
-2.76198e-05
3.26119e-07
-2.71886e-05
-3.09213e-06
-2.60559e-05
-7.15095e-06
-2.40338e-05
-1.21671e-05
-2.0871e-05
-1.82485e-05
-1.64627e-05
-2.45232e-05
-1.10928e-05
-2.88502e-05
-5.45781e-06
-2.85783e-05
-5.97669e-07
-2.15871e-05
2.02356e-06
-6.88571e-06
1.62212e-05
-3.69545e-06
2.10507e-05
-6.60601e-06
1.83476e-05
-9.47441e-06
1.69635e-05
-1.23064e-05
1.63171e-05
-1.50284e-05
1.58135e-05
-1.75899e-05
1.51012e-05
-1.99585e-05
1.40986e-05
-2.21141e-05
1.28279e-05
-2.40336e-05
1.12859e-05
-2.56738e-05
9.39353e-06
-2.69598e-05
7.02771e-06
-2.77975e-05
4.10397e-06
-2.81108e-05
6.39402e-07
-2.78572e-05
-3.34571e-06
-2.69713e-05
-8.03686e-06
-2.52664e-05
-1.3872e-05
-2.2444e-05
-2.10708e-05
-1.83448e-05
-2.86223e-05
-1.31971e-05
-3.39976e-05
-7.56133e-06
-3.42139e-05
-2.29834e-06
-2.68505e-05
9.7136e-07
-1.01558e-05
1.71931e-05
-3.51698e-06
2.45677e-05
-6.42172e-06
2.12523e-05
-9.31634e-06
1.98582e-05
-1.21753e-05
1.91761e-05
-1.49236e-05
1.85618e-05
-1.75139e-05
1.76915e-05
-1.99199e-05
1.65047e-05
-2.21289e-05
1.50369e-05
-2.41255e-05
1.32824e-05
-2.5871e-05
1.1139e-05
-2.72877e-05
8.4444e-06
-2.82715e-05
5.08777e-06
-2.8746e-05
1.11394e-06
-2.86903e-05
-3.40141e-06
-2.8066e-05
-8.66116e-06
-2.66876e-05
-1.52502e-05
-2.42295e-05
-2.3528e-05
-2.05241e-05
-3.23263e-05
-1.57612e-05
-3.87595e-05
-1.02822e-05
-3.9693e-05
-4.63233e-06
-3.2501e-05
-5.16558e-07
-1.4272e-05
1.66764e-05
-3.33168e-06
2.78994e-05
-6.21251e-06
2.41331e-05
-9.11539e-06
2.2761e-05
-1.19899e-05
2.20506e-05
-1.47624e-05
2.13343e-05
-1.73891e-05
2.03182e-05
-1.98483e-05
1.89638e-05
-2.21327e-05
1.73214e-05
-2.42338e-05
1.53836e-05
-2.61178e-05
1.30229e-05
-2.77017e-05
1.00283e-05
-2.88655e-05
6.25163e-06
-2.95238e-05
1.77224e-06
-2.96725e-05
-3.25262e-06
-2.92902e-05
-9.0432e-06
-2.81934e-05
-1.63456e-05
-2.60734e-05
-2.56423e-05
-2.28153e-05
-3.55723e-05
-1.86526e-05
-4.29004e-05
-1.36283e-05
-4.46997e-05
-7.68418e-06
-3.84459e-05
-2.10731e-06
-1.98491e-05
1.45692e-05
2.70792e-06
-3.65072e-06
-1.05106e-05
1.41065e-05
-3.08026e-05
2.03003e-05
-4.80266e-05
1.70183e-05
-5.71577e-05
8.93477e-06
-5.83531e-05
1.26141e-06
-5.32814e-05
-2.71918e-06
-4.93869e-05
-3.76194e-06
-4.49818e-05
-4.65875e-06
-3.84632e-05
-6.89297e-06
-2.80184e-05
-1.08843e-05
-1.55354e-05
-1.25669e-05
-7.51306e-06
-8.13854e-06
-4.45624e-06
-3.06388e-06
-3.88924e-06
-5.74065e-07
-3.01654e-06
-8.79752e-07
-5.29808e-07
-2.2972e-06
2.43744e-06
-2.71131e-06
2.35562e-06
-8.95801e-06
4.82366e-06
-2.98083e-05
3.52542e-05
-4.7441e-05
3.79451e-05
-5.68854e-05
2.64722e-05
-5.88849e-05
1.09376e-05
-5.69465e-05
-6.45931e-07
-5.35016e-05
-6.1199e-06
-4.95417e-05
-7.62834e-06
-4.48036e-05
-9.31382e-06
-3.79471e-05
-1.36585e-05
-2.78235e-05
-2.09521e-05
-1.70449e-05
-2.32824e-05
-1.00182e-05
-1.51124e-05
-7.79498e-06
-5.26584e-06
-8.32344e-06
1.96277e-07
-8.77324e-06
-4.31088e-07
-6.72604e-06
-4.30681e-06
-2.20457e-06
-7.63866e-06
1.67927e-07
-1.87594e-05
2.37511e-05
-3.63697e-05
5.28759e-05
-4.81302e-05
4.97141e-05
-5.41032e-05
3.24555e-05
-5.46538e-05
1.149e-05
-5.14493e-05
-2.30302e-06
-4.79969e-05
-7.60535e-06
-4.48932e-05
-9.75601e-06
-4.07153e-05
-1.28407e-05
-3.41645e-05
-2.00325e-05
-2.41997e-05
-3.07958e-05
-1.40508e-05
-3.33756e-05
-8.1723e-06
-2.09831e-05
-7.91558e-06
-5.51583e-06
-1.09319e-05
3.23753e-06
-1.32172e-05
2.21208e-06
-1.2821e-05
-5.16534e-06
-7.68868e-06
-1.31825e-05
-7.50387e-06
-2.20781e-05
4.58563e-05
-3.62144e-05
6.70326e-05
-4.41327e-05
5.76418e-05
-4.44911e-05
3.28435e-05
-2.63832e-05
4.9645e-06
-1.78747e-05
-1.03692e-06
-1.55738e-05
-2.35596e-06
-1.79615e-05
-1.93426e-06
-1.93141e-05
-1.99694e-06
-2.00001e-05
-5.86269e-06
-1.71967e-05
-2.15266e-05
-8.22827e-06
-4.02069e-05
-3.03873e-06
-2.61542e-05
-4.11624e-06
-4.43101e-06
-9.4738e-06
8.60805e-06
-1.44454e-05
6.57928e-06
-1.59406e-05
-2.94821e-06
-1.178e-05
-1.65686e-05
-1.89383e-05
-2.22529e-05
6.81291e-05
-3.28923e-05
7.76991e-05
-3.50441e-05
5.98687e-05
-1.05234e-05
1.27256e-05
-5.55111e-06
1.68466e-06
-4.12228e-06
-2.62394e-06
-2.76688e-06
-3.70863e-06
-2.49586e-06
-2.20275e-06
-3.12524e-06
-1.40595e-06
-4.6312e-06
-4.35483e-06
-3.59045e-06
-1.83821e-05
3.98235e-07
-3.08231e-05
4.72457e-06
-1.60971e-05
3.20195e-06
-2.4298e-06
-2.71842e-06
9.69647e-06
-5.65617e-06
4.24876e-06
-6.77843e-06
1.08191e-08
-7.34543e-06
-1.07264e-06
-1.0672e-05
-2.12906e-05
8.94323e-05
-2.82603e-05
8.46846e-05
-1.3287e-05
4.5649e-05
-5.88881e-06
9.40147e-06
-5.57285e-06
1.17633e-06
-2.98134e-06
-1.06787e-05
-8.64464e-07
-9.37261e-06
-2.80265e-07
-2.82481e-06
-9.5713e-07
-7.67222e-07
-1.82371e-06
-3.52612e-06
1.43713e-06
-3.22714e-05
6.13295e-06
-3.81457e-05
7.80606e-06
-2.00007e-05
9.48288e-06
-2.81747e-07
4.1941e-06
1.50711e-06
3.20187e-07
2.42135e-07
1.46178e-07
7.81053e-08
1.01927e-08
-9.41988e-07
-1.6759e-06
-2.05343e-05
0.000109975
-2.38981e-05
8.8281e-05
-7.07127e-06
2.72534e-05
-6.70067e-06
1.11279e-05
-1.21454e-05
-7.75892e-07
-8.69183e-06
-2.68064e-05
-1.17228e-06
-3.09231e-05
5.73682e-07
-4.64626e-06
3.55521e-07
-5.86925e-07
9.74177e-07
-3.55864e-06
7.52842e-06
-3.97548e-05
1.44082e-05
-4.76425e-05
3.8323e-06
-2.96251e-05
2.84717e-06
-2.02864e-06
2.52669e-06
4.4125e-07
1.473e-06
1.23931e-06
1.34945e-06
1.95315e-07
8.73799e-07
-4.68858e-07
-8.03885e-07
-2.0903e-05
0.000130888
-2.10398e-05
8.94828e-05
-7.97002e-06
2.39819e-05
-1.0516e-05
1.28941e-05
-1.08415e-05
-3.32167e-06
-6.7047e-06
-3.07764e-05
-1.96083e-06
-3.55243e-05
1.08787e-06
-1.86105e-05
1.29629e-06
-8.70831e-07
1.9579e-06
-4.2368e-06
1.04706e-05
-4.67505e-05
1.71261e-05
-5.33994e-05
2.34926e-05
-3.50406e-05
7.87416e-06
-5.25338e-06
2.86099e-06
2.94707e-06
1.85125e-06
2.26435e-06
1.74826e-06
3.16406e-07
1.29952e-06
-2.17947e-08
4.93116e-07
-6.25515e-06
3.41545e-05
-1.23329e-05
3.02109e-05
-1.84738e-05
2.89019e-05
-2.45975e-05
2.81743e-05
-3.05721e-05
2.73089e-05
-3.63175e-05
2.60636e-05
-4.1791e-05
2.44373e-05
-4.6987e-05
2.25173e-05
-5.19065e-05
2.03031e-05
-5.65014e-05
1.76178e-05
-6.05845e-05
1.41114e-05
-6.38207e-05
9.48788e-06
-6.5954e-05
3.90568e-06
-6.7007e-05
-2.19801e-06
-6.6872e-05
-9.16933e-06
-6.49269e-05
-1.8256e-05
-6.09411e-05
-2.9516e-05
-5.52156e-05
-3.88392e-05
-4.89988e-05
-4.40138e-05
-4.18296e-05
-4.67322e-05
-2.92038e-05
-5.02135e-05
-1.17523e-05
-3.58906e-05
-1.00063e-05
1.16331e-05
-4.69657e-06
3.88511e-05
-1.03405e-05
3.58549e-05
-1.62281e-05
3.47894e-05
-2.2246e-05
3.41923e-05
-2.83105e-05
3.33733e-05
-3.43758e-05
3.21288e-05
-4.03724e-05
3.04339e-05
-4.62731e-05
2.84181e-05
-5.21116e-05
2.61415e-05
-5.79208e-05
2.3427e-05
-6.35921e-05
1.97827e-05
-6.85385e-05
1.44344e-05
-7.22294e-05
7.59786e-06
-7.46171e-05
2.00796e-07
-7.45194e-05
-8.0694e-06
-6.49422e-05
-1.35005e-05
-4.9076e-05
-1.30317e-05
-3.47153e-05
-1.18799e-05
-2.86451e-05
-3.8924e-06
-2.93247e-05
-8.56482e-06
-4.31754e-05
-3.25289e-05
-4.20472e-05
-4.64015e-05
-1.57308e-05
-4.00427e-05
-2.48162e-06
4.13327e-05
-7.04971e-06
4.0423e-05
-1.21672e-05
3.9907e-05
-1.78789e-05
3.99039e-05
-2.38902e-05
3.93846e-05
-2.97555e-05
3.28892e-05
-3.56299e-05
2.6132e-05
-4.07434e-05
2.19269e-05
-4.59535e-05
1.87416e-05
-5.19024e-05
1.64654e-05
-5.96324e-05
1.46819e-05
-6.77512e-05
1.24807e-05
-7.55389e-05
8.62896e-06
-8.09399e-05
3.66647e-06
-6.08704e-05
-1.70883e-06
-2.63187e-05
-4.81134e-06
-7.46141e-06
-5.27816e-06
-2.03523e-06
-2.97624e-06
-3.14269e-06
-1.71599e-06
-9.83919e-06
-2.05713e-06
-5.24556e-05
-8.07476e-06
-8.1968e-05
-4.21977e-05
-1.08037e-05
-8.68179e-05
1.42038e-07
3.17117e-05
-1.884e-06
2.92989e-05
-4.92779e-06
2.41244e-05
-8.26689e-06
1.69746e-05
-1.06522e-05
8.75842e-06
-1.14671e-05
2.2173e-06
-1.11743e-05
1.5425e-07
-1.0827e-05
-1.36671e-09
-1.11205e-05
5.24013e-09
-1.25868e-05
-6.89627e-08
-1.59744e-05
-1.92213e-07
-2.44401e-05
-3.02676e-07
-3.23133e-05
-2.35652e-07
-3.59449e-05
-4.37663e-07
-2.54422e-05
-3.18856e-07
-1.774e-05
-2.40018e-06
-8.12452e-06
-5.37566e-06
-3.13977e-06
-4.27454e-06
-2.46609e-06
-1.82822e-06
-2.82113e-06
-1.11928e-06
-1.58782e-05
-1.05285e-06
-9.20226e-05
-1.12195e-05
-7.79404e-06
-9.50173e-05
1.41401e-06
3.69224e-07
1.10416e-06
1.26387e-07
2.72316e-07
2.30203e-08
-2.45984e-07
2.35053e-08
-3.98256e-07
5.09543e-08
-4.27774e-07
5.40914e-08
-4.47084e-07
3.73496e-08
-5.76189e-07
2.25006e-08
-6.74866e-07
4.80277e-09
-8.54215e-07
-4.90506e-09
-1.17089e-06
-3.49173e-08
-1.65896e-06
-7.47506e-08
-2.29513e-06
-8.2493e-08
-5.49866e-06
-7.23486e-08
-1.2836e-05
2.10317e-08
-1.57745e-05
-3.23927e-06
-1.65711e-05
-5.78528e-06
-1.01348e-05
-8.3356e-06
-3.40438e-06
-6.21357e-06
-2.01267e-06
-1.98641e-06
-2.39463e-06
-4.41499e-07
-2.11791e-05
-6.22333e-07
-5.41248e-06
-8.4158e-05
-7.3102e-08
-2.60834e-09
1.84218e-08
-7.08536e-09
-3.32927e-08
4.24554e-09
-8.42466e-08
1.02498e-08
-9.13521e-08
1.20659e-08
-7.46348e-08
8.89308e-09
-6.18604e-08
5.56561e-09
-5.7077e-08
2.8266e-09
-6.8504e-08
1.47934e-09
-9.92742e-08
-3.85668e-10
-1.814e-07
-3.88651e-09
-3.45505e-07
-1.29827e-08
-4.26078e-07
-2.54864e-08
-8.21235e-07
7.19897e-08
-1.06867e-05
2.40019e-07
-1.88548e-05
-2.30671e-06
-1.76591e-05
-5.44079e-06
-1.50545e-05
-9.23107e-06
-1.11657e-05
-8.85584e-06
-1.62133e-06
-4.80838e-06
-1.10868e-06
-9.70651e-07
-1.5146e-06
-3.0931e-07
-1.66374e-07
-6.86007e-06
-5.86345e-09
-3.71329e-10
-1.58058e-08
-1.07011e-09
-1.93531e-08
5.12467e-10
-1.78159e-08
1.50407e-09
-1.33555e-08
1.68479e-09
-9.68107e-09
1.21398e-09
-7.65157e-09
7.79139e-10
-7.61574e-09
4.09579e-10
-9.61822e-09
3.82461e-10
-1.63379e-08
3.56906e-10
-3.49011e-08
3.20908e-10
-7.72028e-08
-1.99198e-09
-1.28631e-07
-1.07554e-08
-1.33757e-07
-1.99298e-08
-3.22313e-07
-3.95688e-08
-8.24007e-06
-3.67218e-07
-1.53993e-05
-3.67908e-06
-1.61016e-05
-7.01536e-06
-1.44466e-05
-1.02735e-05
-6.33301e-06
-7.7455e-06
-9.38638e-07
-3.55909e-06
-6.75431e-07
-6.87763e-07
-3.67494e-07
-5.99845e-07
-7.33689e-10
-1.8023e-11
-2.08689e-09
-9.87136e-11
-2.61175e-09
8.34339e-11
-2.30788e-09
1.84331e-10
-1.64221e-09
2.03677e-10
-1.16456e-09
1.53025e-10
-9.17182e-10
1.02713e-10
-1.00449e-09
8.02785e-11
-1.34195e-09
1.10314e-10
-2.59729e-09
2.37058e-10
-6.60095e-09
5.69312e-10
-1.7583e-08
7.76884e-10
-3.77172e-08
-1.85691e-10
-6.02645e-08
-1.51738e-09
-7.9703e-08
-6.48171e-09
-4.2665e-07
-7.04995e-09
-4.73136e-06
-2.65858e-07
-1.18875e-05
-2.89961e-06
-1.4709e-05
-7.14093e-06
-1.22638e-05
-9.2962e-06
-3.71494e-06
-6.61054e-06
-1.12795e-06
-3.36137e-06
-6.48636e-07
-9.62469e-07
-6.38368e-11
1.87657e-12
-2.02753e-10
-4.7693e-12
-2.5453e-10
1.42198e-11
-2.30114e-10
2.36897e-11
-1.68508e-10
2.50774e-11
-1.22802e-10
1.96673e-11
-1.04089e-10
1.43808e-11
-1.16833e-10
1.51472e-11
-1.77118e-10
2.71365e-11
-3.99047e-10
7.63939e-11
-1.08593e-09
2.31586e-10
-3.05783e-09
5.20793e-10
-6.22309e-09
7.36989e-10
-7.60277e-09
1.20808e-10
-9.18182e-09
-1.16814e-09
-9.85463e-09
-1.39456e-09
-2.64217e-07
-1.55192e-08
-2.95853e-06
-2.26135e-07
-9.48101e-06
-1.80433e-06
-1.20252e-05
-5.68388e-06
-1.0295e-05
-6.73618e-06
-5.84939e-06
-5.67974e-06
-5.0424e-06
-2.04109e-06
-4.72135e-12
7.37624e-13
-1.5797e-11
3.25397e-13
-2.06199e-11
2.45032e-12
-1.94399e-11
3.30435e-12
-1.48029e-11
3.28877e-12
-1.11325e-11
2.65326e-12
-1.01999e-11
2.16144e-12
-1.16224e-11
2.62418e-12
-1.90603e-11
5.3728e-12
-4.5756e-11
1.65418e-11
-1.24169e-10
5.63456e-11
-2.74057e-10
1.60277e-10
-3.50465e-10
2.42276e-10
-3.64136e-10
7.7094e-11
-5.85416e-10
-2.5185e-10
-8.71744e-10
-2.91895e-10
-1.51671e-08
-2.7156e-10
-2.35122e-07
-7.01068e-09
-1.94425e-06
-9.68227e-08
-7.59176e-06
-6.65654e-07
-1.06549e-05
-2.5794e-06
-1.09818e-05
-4.49806e-06
-5.41719e-06
-9.33999e-06
-2.87038e-13
1.69696e-13
-9.89699e-13
1.60833e-13
-1.32781e-12
4.28276e-13
-1.28161e-12
5.03108e-13
-9.90243e-13
4.66931e-13
-7.43501e-13
3.74989e-13
-7.05876e-13
3.42383e-13
-7.61278e-13
4.19565e-13
-1.14126e-12
9.83079e-13
-1.92422e-12
3.29675e-12
9.59166e-13
1.22234e-11
3.7276e-11
3.72457e-11
1.17185e-10
5.7268e-11
1.45856e-10
2.3e-11
6.74211e-11
-5.55478e-11
6.18016e-12
-6.23388e-11
-5.78206e-11
-4.20781e-11
-6.92982e-09
-1.8501e-12
-1.03525e-07
-5.92465e-10
-7.56327e-07
-1.35675e-08
-3.49282e-06
-1.14268e-07
-7.4493e-06
-7.54772e-07
-2.19671e-06
-8.94924e-06
-6.91732e-15
4.46502e-14
-3.00402e-14
4.80804e-14
-3.56746e-14
9.07475e-14
-2.6417e-14
9.54757e-14
-1.21002e-14
8.49064e-14
-1.52717e-15
7.07083e-14
8.72676e-15
7.1496e-14
3.30485e-14
8.65184e-14
1.70337e-13
1.91185e-13
1.04879e-12
6.72577e-13
5.81632e-12
2.61837e-12
2.24016e-11
7.84783e-12
5.15655e-11
1.20791e-11
6.30622e-11
5.30588e-12
3.5003e-11
-1.01506e-11
1.58219e-11
-1.20069e-11
5.91843e-12
-5.40238e-12
7.33114e-13
7.39073e-14
-5.81706e-10
-4.53434e-12
-1.40801e-08
-4.04314e-12
-1.28422e-07
-1.91625e-12
-8.87515e-07
-1.00732e-12
-5.43576e-13
-5.02097e-06
2.37151e-15
1.66947e-14
4.07072e-15
1.89236e-14
9.82164e-15
2.6659e-14
1.27672e-14
2.61772e-14
1.31328e-14
2.09254e-14
1.30956e-14
1.27142e-14
1.60454e-14
1.36353e-14
2.4426e-14
1.70017e-14
7.85625e-14
3.98483e-14
3.70884e-13
1.29171e-13
1.72134e-12
4.72016e-13
5.96516e-12
1.40267e-12
1.30029e-11
2.21923e-12
1.5991e-11
1.08324e-12
9.6684e-12
-1.47122e-12
4.82403e-12
-1.9869e-12
2.97293e-12
-7.26905e-13
2.79111e-12
2.58085e-13
2.45613e-12
6.65638e-14
2.47803e-14
-2.42578e-13
-5.37246e-14
-1.52676e-12
-8.20055e-14
-7.32763e-13
-3.32196e-13
-9.65683e-14
6.83602e-16
8.32349e-15
1.39844e-15
9.75776e-15
3.05026e-15
1.07521e-14
3.81559e-15
1.0494e-14
3.83325e-15
9.45063e-15
3.79294e-15
7.91079e-15
4.2818e-15
6.01558e-15
5.46388e-15
5.41232e-15
1.5197e-14
1.0177e-14
6.92586e-14
2.96996e-14
3.28906e-13
9.9339e-14
1.15582e-12
2.38253e-13
2.53712e-12
3.82554e-13
3.16974e-12
2.12301e-13
2.1466e-12
-1.63115e-13
1.18414e-12
-2.48746e-13
8.00166e-13
-4.66432e-14
9.70259e-13
-3.07846e-15
1.32358e-12
-5.40955e-14
1.21868e-12
1.20569e-13
1.27457e-12
-6.91382e-14
6.51389e-14
-4.1839e-13
-5.18682e-13
1.08111e-14
2.24174e-16
3.4118e-15
5.29667e-16
4.15427e-15
9.52518e-16
4.21825e-15
1.21464e-15
3.97911e-15
1.25926e-15
3.37667e-15
1.15352e-15
2.49784e-15
1.02404e-15
1.23157e-15
1.47859e-15
3.75736e-15
3.362e-15
7.88394e-15
1.09364e-14
2.26689e-14
4.50123e-14
4.60285e-14
1.79223e-13
5.35287e-14
4.10063e-13
6.83753e-14
5.281e-13
3.83369e-14
4.0616e-13
-7.64598e-15
2.51298e-13
8.71692e-15
2.02608e-13
2.56749e-14
1.82264e-13
2.31734e-14
1.5651e-13
1.28861e-14
4.33871e-13
3.75266e-15
6.72138e-13
-5.58029e-15
6.93676e-13
-5.93626e-14
-4.17036e-14
5.7464e-13
7.82687e-17
9.16659e-16
1.94363e-16
1.14111e-15
3.12132e-16
1.09907e-15
3.68122e-16
9.41211e-16
3.39627e-16
6.78231e-16
2.24452e-16
3.41236e-16
2.23671e-16
6.90277e-16
7.22923e-17
1.80889e-16
-1.09761e-15
-2.30761e-15
-2.63532e-15
-4.683e-15
5.01024e-15
6.06201e-15
2.14213e-14
3.69542e-14
5.63157e-14
1.95564e-14
7.45236e-14
1.18641e-14
6.64528e-14
7.42958e-15
5.79985e-14
9.8589e-15
6.02379e-14
1.08563e-14
6.61102e-14
1.11916e-14
6.82906e-14
1.07433e-14
7.17935e-14
4.80293e-15
6.76402e-14
7.22351e-16
6.57197e-14
-6.34461e-15
-1.5148e-14
1.07007e-13
1.98383e-17
1.5942e-16
4.93124e-17
2.01184e-16
7.34794e-17
1.82933e-16
7.76824e-17
1.43807e-16
6.12816e-17
9.12589e-17
5.96337e-17
3.27538e-17
4.29143e-18
1.11951e-17
-4.49475e-16
-9.7614e-16
-1.94572e-15
-3.56274e-15
-5.04093e-15
-7.84228e-15
-7.63333e-15
-1.01285e-14
-2.75347e-15
-3.11901e-15
8.50241e-15
8.79707e-15
7.73799e-15
1.25991e-14
9.86614e-15
1.58333e-15
1.26677e-14
1.59789e-15
1.67345e-14
2.2752e-15
2.23112e-14
2.90289e-15
2.75381e-14
3.17211e-15
3.0242e-14
2.28063e-15
3.15633e-14
8.0305e-16
3.02935e-14
-1.1505e-15
-2.95086e-15
2.39662e-14
3.63095e-18
2.13384e-17
9.26945e-18
2.77407e-17
1.27816e-17
2.46283e-17
1.26788e-17
1.86554e-17
8.59969e-18
9.73651e-18
8.02947e-18
2.29547e-17
-6.57671e-17
-1.53584e-16
-4.12512e-16
-8.02499e-16
-1.3948e-15
-2.29079e-15
-3.49204e-15
-4.88342e-15
-6.50776e-15
-7.785e-15
-8.0569e-15
-8.25599e-15
-5.15746e-15
-4.51972e-15
1.38516e-17
6.67977e-18
7.24568e-16
8.67697e-16
1.15579e-15
8.24764e-16
2.33357e-15
8.68933e-16
5.0129e-15
3.08068e-16
7.63182e-15
4.91066e-16
9.58178e-15
4.91462e-16
1.0528e-14
2.29726e-16
1.03391e-14
-1.66244e-16
-5.38991e-16
9.38887e-15
5.45246e-19
2.5991e-18
1.4378e-18
3.49669e-18
1.89374e-18
3.04298e-18
1.74452e-18
2.18461e-18
1.99857e-18
9.11292e-19
-2.99949e-18
-7.84006e-18
-5.36643e-17
-1.14578e-16
-2.36891e-16
-4.21309e-16
-7.12472e-16
-1.06984e-15
-1.7165e-15
-2.1955e-15
-3.35904e-15
-3.67798e-15
-5.10088e-15
-4.78876e-15
-5.57883e-15
-4.48291e-15
-4.25751e-15
-2.91295e-15
-2.36056e-15
-1.36198e-15
-8.03056e-16
-3.84623e-16
5.59987e-17
9.8782e-18
3.54735e-16
9.95953e-17
9.13083e-16
1.65318e-16
1.66757e-15
3.34785e-17
2.12877e-15
2.46237e-17
2.28195e-15
-1.29797e-17
-5.70333e-17
2.25725e-15
7.31408e-20
2.98696e-19
1.98637e-19
4.12477e-19
2.49738e-19
3.48769e-19
2.17179e-19
2.22453e-19
2.11689e-19
6.46426e-19
-3.70076e-18
-8.97438e-18
-2.78084e-17
-5.50675e-17
-1.03683e-16
-1.70922e-16
-2.88662e-16
-4.0146e-16
-6.70752e-16
-7.9397e-16
-1.32348e-15
-1.34004e-15
-2.1727e-15
-1.88458e-15
-2.83327e-15
-2.10124e-15
-2.89291e-15
-1.82392e-15
-2.3307e-15
-1.23632e-15
-1.49278e-15
-6.55114e-16
-7.77503e-16
-2.74894e-16
-2.87629e-16
-7.8476e-17
-2.26035e-17
-4.41501e-18
7.38188e-17
6.67784e-18
1.81051e-16
6.56814e-18
2.66661e-16
-2.33217e-19
-2.47989e-18
3.03327e-16
8.93932e-21
3.17907e-20
2.48659e-20
4.47955e-20
2.94783e-20
3.64193e-20
4.19418e-20
1.87177e-20
-5.46561e-20
-1.56494e-19
-1.99834e-18
-4.54338e-18
-1.10127e-17
-2.0434e-17
-3.6795e-17
-5.67759e-17
-9.65404e-17
-1.25496e-16
-2.16816e-16
-2.39469e-16
-4.24316e-16
-4.00072e-16
-7.1846e-16
-5.7899e-16
-1.01847e-15
-6.99849e-16
-1.1909e-15
-6.93342e-16
-1.14192e-15
-5.56917e-16
-9.01571e-16
-3.61688e-16
-5.97226e-16
-1.91538e-16
-3.28307e-16
-8.03848e-17
-1.4992e-16
-2.58647e-17
-5.2485e-17
-5.4161e-18
-1.12495e-17
-4.16907e-19
7.84229e-18
1.51752e-19
1.36452e-19
1.77102e-17
9.97447e-22
3.10791e-21
2.82907e-21
4.45444e-21
3.08431e-21
3.41957e-21
3.8599e-21
1.68004e-21
-6.13802e-20
-1.66123e-19
-7.71231e-19
-1.65705e-18
-3.54187e-18
-6.20527e-18
-1.08914e-17
-1.58453e-17
-2.71687e-17
-3.32322e-17
-5.90136e-17
-6.11768e-17
-1.13533e-16
-1.00169e-16
-1.93511e-16
-1.45404e-16
-2.8543e-16
-1.82096e-16
-3.59205e-16
-1.93145e-16
-3.80777e-16
-1.70385e-16
-3.37641e-16
-1.23217e-16
-2.51913e-16
-7.26428e-17
-1.58911e-16
-3.44014e-17
-8.60995e-17
-1.27832e-17
-4.03351e-17
-3.38991e-18
-1.64991e-17
-3.91037e-19
-5.83522e-18
8.26338e-20
7.35335e-20
-1.66079e-18
1.01785e-22
2.79232e-22
2.93265e-22
4.0592e-22
3.44919e-22
2.8808e-22
3.16355e-22
1.06864e-21
-2.79823e-20
-7.20543e-20
-2.36131e-19
-4.82518e-19
-9.52074e-19
-1.58461e-18
-2.73116e-18
-3.76781e-18
-6.50258e-18
-7.52305e-18
-1.36475e-17
-1.33379e-17
-2.56442e-17
-2.1245e-17
-4.3323e-17
-3.04187e-17
-6.47286e-17
-3.83609e-17
-8.44876e-17
-4.18961e-17
-9.47738e-17
-3.87516e-17
-8.98961e-17
-2.96159e-17
-7.17155e-17
-1.83562e-17
-4.83338e-17
-9.05311e-18
-2.7921e-17
-3.42974e-18
-1.40424e-17
-8.77269e-19
-6.24618e-18
-4.30541e-20
-2.49578e-18
2.44025e-20
1.7484e-20
-9.05278e-19
9.51003e-24
2.30705e-23
2.77369e-23
3.38964e-23
4.71432e-23
2.19676e-23
-1.84099e-22
-5.94863e-22
-9.03043e-21
-2.22504e-20
-5.98315e-20
-1.16924e-19
-2.17401e-19
-3.45556e-19
-5.85746e-19
-7.6998e-19
-1.33211e-18
-1.46396e-18
-2.69473e-18
-2.49165e-18
-4.91583e-18
-3.83377e-18
-8.13508e-18
-5.34392e-18
-1.20738e-17
-6.64347e-18
-1.59125e-17
-7.25609e-18
-1.8292e-17
-6.79259e-18
-1.79222e-17
-5.27258e-18
-1.47435e-17
-3.28857e-18
-1.0179e-17
-1.59734e-18
-5.96511e-18
-5.68509e-19
-3.01399e-18
-1.15288e-19
-1.33279e-18
2.58904e-21
-5.37227e-19
4.35007e-21
2.46142e-21
-2.00488e-19
8.13121e-25
1.75212e-24
2.3913e-24
2.58621e-24
3.79331e-24
1.41776e-24
-1.07798e-22
-3.3503e-22
-2.30793e-21
-5.47087e-21
-1.28266e-20
-2.40966e-20
-4.26019e-20
-6.49845e-20
-1.08111e-19
-1.3602e-19
-2.34533e-19
-2.45785e-19
-4.55517e-19
-3.99723e-19
-8.01548e-19
-5.89662e-19
-1.28583e-18
-7.90694e-19
-1.86519e-18
-9.51483e-19
-2.4274e-18
-1.01348e-18
-2.78292e-18
-9.30576e-19
-2.73284e-18
-7.07175e-19
-2.24516e-18
-4.24937e-19
-1.5323e-18
-1.91525e-19
-8.74899e-19
-5.73447e-20
-4.23489e-19
-4.69844e-21
-1.77109e-19
6.13035e-22
-6.92388e-20
4.68264e-22
1.61055e-22
-2.47137e-20
6.35175e-26
1.22236e-25
1.87027e-25
1.79678e-25
2.60354e-25
5.22521e-25
-3.45685e-23
-1.03936e-22
-4.88523e-22
-1.12028e-21
-2.35756e-21
-4.28013e-21
-7.21362e-21
-1.06116e-20
-1.72463e-20
-2.08601e-20
-3.55823e-20
-3.56955e-20
-6.60149e-20
-5.5142e-20
-1.11236e-19
-7.73328e-20
-1.71182e-19
-9.85573e-20
-2.39047e-19
-1.12804e-19
-3.00946e-19
-1.14379e-19
-3.35385e-19
-9.98341e-20
-3.20446e-19
-7.14064e-20
-2.54344e-19
-3.92351e-20
-1.65203e-19
-1.50579e-20
-8.78631e-20
-2.91702e-21
-3.84411e-20
4.62206e-23
-1.49724e-20
5.58044e-23
-5.48171e-21
2.7853e-23
-8.04504e-23
-1.3622e-21
4.52392e-27
7.82838e-27
2.11802e-26
1.14109e-26
8.84906e-27
3.61776e-26
-8.21891e-24
-2.40571e-23
-8.76626e-23
-1.95635e-22
-3.7479e-22
-6.61235e-22
-1.06061e-21
-1.51246e-21
-2.38519e-21
-2.78663e-21
-4.66041e-21
-4.4937e-21
-8.20774e-21
-6.54697e-21
-1.31338e-20
-8.64532e-21
-1.91738e-20
-1.03359e-20
-2.53819e-20
-1.10476e-20
-3.02757e-20
-1.03955e-20
-3.19363e-20
-8.33197e-21
-2.87409e-20
-5.34783e-21
-2.11986e-20
-2.49468e-21
-1.24877e-20
-6.87045e-22
-5.80605e-21
5.37673e-25
-2.17543e-21
4.48988e-24
-7.7605e-22
2.55864e-24
-2.45411e-22
-8.76669e-25
-1.21629e-22
1.1056e-21
2.93231e-28
4.59605e-28
1.39175e-27
6.58466e-28
-1.02335e-26
-4.10036e-26
-1.57406e-24
-4.51674e-24
-1.35244e-23
-2.95653e-23
-5.18529e-23
-8.94518e-23
-1.35901e-22
-1.88954e-22
-2.86662e-22
-3.25202e-22
-5.27638e-22
-4.91273e-22
-8.75693e-22
-6.69483e-22
-1.31809e-21
-8.23359e-22
-1.80294e-21
-9.10004e-22
-2.22507e-21
-8.90073e-22
-2.45863e-21
-7.55217e-22
-2.38258e-21
-5.33168e-22
-1.94266e-21
-2.878e-22
-1.26526e-21
-1.00145e-22
-6.29461e-22
-1.01745e-23
-2.28069e-22
2.51302e-25
-7.607e-23
1.57309e-25
-2.36789e-23
3.89285e-26
3.21466e-23
-3.14359e-24
-1.34429e-22
1.22031e-21
1.72414e-29
2.46107e-29
8.20564e-29
3.29923e-29
-3.85782e-27
-1.52765e-26
-2.51968e-25
-7.14339e-25
-1.81085e-24
-3.90625e-24
-6.2725e-24
-1.06542e-23
-1.52205e-23
-2.07687e-23
-2.99964e-23
-3.32443e-23
-5.1691e-23
-4.67262e-23
-8.01735e-23
-5.90074e-23
-1.12296e-22
-6.67557e-23
-1.41914e-22
-6.70806e-23
-1.60234e-22
-5.86528e-23
-1.5984e-22
-4.33592e-23
-1.37304e-22
-2.55413e-23
-9.64475e-23
-1.04822e-23
-5.14716e-23
-1.96642e-24
-1.89999e-23
9.3016e-27
-5.52523e-24
7.26632e-27
-1.5436e-24
2.6383e-27
-2.59305e-25
-3.98851e-26
3.31939e-23
-3.52521e-24
-1.26865e-22
1.07723e-21
9.12922e-31
1.17995e-30
4.18281e-30
1.9699e-30
-8.702e-28
-3.43714e-27
-3.44175e-26
-9.72469e-26
-2.11869e-25
-4.5475e-25
-6.65909e-25
-1.12261e-24
-1.49364e-24
-2.01554e-24
-2.7375e-24
-2.9853e-24
-4.38595e-24
-3.87433e-24
-6.2986e-24
-4.48719e-24
-8.11044e-24
-4.60517e-24
-9.3193e-24
-4.12775e-24
-9.41954e-24
-3.13853e-24
-8.22632e-24
-1.93643e-24
-5.98727e-24
-8.8163e-25
-3.37609e-24
-2.26863e-25
-1.30238e-24
1.10641e-28
-3.20767e-25
2.86652e-28
-7.75382e-26
1.01408e-28
-1.74892e-26
-1.39486e-29
3.99572e-25
-4.07449e-26
2.78963e-23
-3.02041e-24
-7.66927e-23
6.82648e-22
5.68732e-32
5.57323e-32
1.9059e-31
1.19673e-30
-1.47891e-28
-5.88677e-28
-4.06554e-27
-1.15624e-26
-2.17763e-26
-4.69558e-26
-6.22429e-26
-1.05123e-25
-1.28728e-25
-1.73347e-25
-2.18248e-25
-2.36221e-25
-3.22636e-25
-2.80733e-25
-4.2464e-25
-2.94836e-25
-4.95904e-25
-2.70264e-25
-5.08728e-25
-2.11384e-25
-4.48696e-25
-1.35205e-25
-3.30378e-25
-6.58234e-26
-1.91879e-25
-2.05286e-26
-7.79582e-26
-1.79709e-27
-1.71311e-26
1.02214e-29
-3.53746e-27
3.61106e-30
-6.84364e-28
8.09517e-31
7.87488e-28
-2.04921e-29
2.65643e-25
-2.45943e-26
1.51592e-23
-1.44121e-24
-3.00719e-23
2.92614e-22
3.0522e-33
4.0071e-32
-6.18904e-32
-3.96601e-31
-2.03759e-29
-8.26942e-29
-4.19259e-28
-1.21404e-27
-1.97496e-27
-4.32696e-27
-5.13743e-27
-8.78996e-27
-9.76559e-27
-1.32669e-26
-1.52275e-26
-1.65309e-26
-2.06008e-26
-1.78316e-26
-2.45754e-26
-1.67746e-26
-2.56403e-26
-1.3499e-26
-2.29993e-26
-8.98283e-27
-1.71735e-26
-4.64147e-27
-1.01684e-26
-1.65091e-27
-4.33528e-27
-2.79935e-28
-1.05288e-27
2.34924e-31
-1.68792e-28
1.30942e-31
-2.58911e-29
2.82498e-32
-3.84716e-30
4.63838e-33
1.54258e-28
-6.65514e-30
1.01168e-25
-7.079e-27
5.03861e-24
-4.03418e-25
-9.03933e-24
8.63149e-23
-1.42718e-34
-1.95053e-33
-2.0503e-32
-1.3593e-31
-2.35755e-30
-9.89016e-30
-3.80212e-29
-1.13645e-28
-1.58666e-28
-3.58052e-28
-3.75516e-28
-6.59721e-28
-6.53667e-28
-9.07864e-28
-9.3169e-28
-1.02764e-27
-1.14352e-27
-9.96766e-28
-1.22175e-27
-8.28905e-28
-1.12012e-27
-5.7456e-28
-8.57954e-28
-3.15965e-28
-5.23162e-28
-1.25439e-28
-2.34459e-28
-2.91085e-29
-6.4959e-29
-1.23979e-30
-8.37146e-30
5.55976e-33
-1.08066e-30
1.21173e-33
-1.37042e-31
1.7642e-34
-1.64144e-32
1.4588e-35
2.09632e-29
-2.48539e-31
2.04992e-26
-1.0525e-27
1.05779e-24
-7.80236e-26
-2.57753e-24
2.09176e-23
-1.17288e-34
-1.69693e-33
-3.67143e-33
-2.56039e-32
-2.33876e-31
-1.03127e-30
-3.05001e-30
-9.5687e-30
-1.13331e-29
-2.67823e-29
-2.4379e-29
-4.47066e-29
-3.87069e-29
-5.58584e-29
-5.01071e-29
-5.70523e-29
-5.52886e-29
-4.92783e-29
-5.22372e-29
-3.57233e-29
-4.13292e-29
-2.08897e-29
-2.63151e-29
-9.18177e-30
-1.25528e-29
-2.62954e-30
-3.93674e-30
-3.29695e-31
-5.88303e-31
1.38024e-34
-6.26962e-32
5.0577e-35
-6.3622e-33
7.12204e-36
-6.21936e-34
7.91697e-37
-3.96677e-35
-6.84332e-37
5.74454e-31
-1.89404e-33
2.30392e-27
-9.71472e-29
1.61512e-25
-1.21865e-26
-6.28697e-25
4.90918e-24
-2.45301e-35
-3.84012e-34
-4.84644e-34
-3.63097e-33
-2.01665e-32
-9.5435e-32
-2.17519e-31
-7.311e-31
-7.22272e-31
-1.82393e-30
-1.41017e-30
-2.75374e-30
-2.03366e-30
-3.11029e-30
-2.37534e-30
-2.84693e-30
-2.33415e-30
-2.16808e-30
-1.92415e-30
-1.35025e-30
-1.28819e-30
-6.51301e-31
-6.61505e-31
-2.20251e-31
-2.34556e-31
-4.19582e-32
-4.65163e-32
-1.85482e-33
-3.85668e-33
2.62097e-36
-3.19435e-34
4.06018e-37
-2.6219e-35
3.99445e-38
-2.10581e-36
3.18776e-39
4.94683e-36
-8.10069e-38
4.16817e-33
-4.32721e-34
1.67174e-28
-7.02396e-30
2.00565e-26
-1.43658e-27
-9.49215e-26
9.48247e-25
-3.43012e-36
-5.98637e-35
-5.13843e-35
-4.25027e-34
-1.52637e-33
-7.95573e-33
-1.38554e-32
-5.11487e-32
-4.1226e-32
-1.13978e-31
-7.29329e-32
-1.55334e-31
-9.51316e-32
-1.57913e-31
-9.95874e-32
-1.28667e-31
-8.63084e-32
-8.55423e-32
-6.12067e-32
-4.50911e-32
-3.39466e-32
-1.75178e-32
-1.35908e-32
-4.36572e-33
-3.37326e-33
-4.96778e-34
-3.73688e-34
2.36188e-38
-2.55513e-35
2.1547e-38
-1.68512e-36
2.19588e-39
-1.0804e-37
1.66664e-40
-6.51602e-39
4.97705e-42
2.37143e-37
-5.94676e-38
1.24395e-33
-1.02104e-33
9.71355e-30
-6.02496e-31
1.84614e-27
-1.06468e-28
-8.511e-27
1.09952e-25
-3.70115e-37
-7.50526e-36
-4.54774e-36
-4.30043e-35
-1.02209e-34
-6.05417e-34
-7.92048e-34