/*--------------------------------*- C++ -*----------------------------------*\
| =========                 |                                                 |
| \\      /  F ield         | OpenFOAM: The Open Source CFD Toolbox           |
|  \\    /   O peration     | Version:  v2012                                 |
|   \\  /    A nd           | Website:  www.openfoam.com                      |
|    \\/     M anipulation  |                                                 |
\*---------------------------------------------------------------------------*/
FoamFile
{
    version     2.0;
    format      ascii;
    class       volScalarField;
    location    "0.95";
    object      alpha.water;
}
// * * * * * * * * * * * * * * * * * * * * * * * * * * * * * * * * * * * * * //

dimensions      [0 0 0 0 0 0 0];


internalField   nonuniform List<scalar> 
2268
(
1
1
1
1
1
1
1
1
1
1
1
1
0.999998
0.99999
0.993939
0.967423
0.964456
0.964454
0.964474
0.964532
0.964572
0.982602
0.999188
1
1
1
1
1
1
1
1
1
1
1
1
0.999999
0.999995
0.999959
0.998985
0.992214
0.986917
0.986154
0.988501
0.992318
0.99349
0.999203
1
1
1
1
1
1
1
1
1
1
1
1
1
1
1
1
1
1
1
1
1
1
0.999594
1
1
1
1
1
1
1
1
1
1
1
1
1
1
1
1
1
1
1
1
0.999997
0.999953
0.999657
1
1
1
1
1
1
1
1
1
1
1
1
1
1
1
1
1
1
0.999999
0.999999
0.999993
0.999873
0.999656
1
1
1
1
1
1
1
1
1
1
1
1
1
1
1
1
0.999998
0.999995
0.999991
0.99999
0.999988
0.999924
0.999827
1
1
1
1
1
1
1
1
1
1
1
1
1
1
0.999999
0.999997
0.999983
0.999945
0.999909
0.999908
0.999948
0.999922
0.999912
1
1
1
1
1
1
1
1
1
1
1
1
1
0.999999
0.999995
0.999972
0.99987
0.999634
0.999313
0.999266
0.999656
0.999913
0.999907
0.53155
0.824674
0.99659
0.99547
0.994815
0.995237
0.976293
0.951055
0.951049
0.952128
0.956146
0.944756
0.923482
0.915672
0.915672
0.915672
0.929748
0.929425
0.951719
0.709306
0.962415
0.996589
0.996566
0.996398
0.995437
0.995317
0.994762
0.99404
0.993661
0.993687
0.9938
0.994399
0.973258
0.925473
0.915746
0.915849
0.919104
0.958041
0.954658
0.99656
0.99659
0.996563
0.996338
0.974344
0.962929
0.978714
0.989949
0.992812
0.993101
0.994401
0.994992
0.994991
0.994928
0.980071
0.955856
0.957963
0.958041
0.995002
0.995774
0.996615
0.996234
0.733149
0.396813
0.342783
0.419581
0.524317
0.605493
0.795601
0.981693
0.994811
0.994991
0.994831
0.994454
0.965505
0.957071
0.957963
0.994537
0.995035
0.99427
0.697687
0.121013
0.11437
0.112099
0.111897
0.111497
0.111894
0.233492
0.588954
0.798932
0.97593
0.921435
0.72592
0.507881
0.487837
0.662108
0.994073
0.994208
0.89035
0.173737
0.123813
0.148513
0.130648
0.111498
0.111498
0.111498
0.213138
0.323684
0.35994
0.563429
0.486074
0.166731
0.0539352
0.0531646
0.0669116
0.993744
0.988424
0.628481
0.170191
0.221937
0.646041
0.575404
0.111714
0.111498
0.113574
0.6313
0.634714
0.418233
0.136484
0.0786049
0.0537428
0.0531682
0.0531245
0.0531257
0.99291
0.984112
0.497378
0.191565
0.565784
0.683227
0.68355
0.399695
0.111714
0.114585
0.632429
0.634778
0.634756
0.452169
0.0673651
0.0530984
0.0531857
0.0531234
0.0531245
1
1
1
1
1
1
1
1
1
1
1
1
0.999999
0.99999
0.999915
0.999718
0.998839
0.992055
0.981846
0.979547
0.994261
0.975445
0.945459
1
1
1
1
1
1
1
1
1
1
1
0.999999
0.999992
0.999934
0.995691
0.915127
0.712101
0.534609
0.439471
0.430856
0.661682
0.919424
0.969282
1
1
1
1
1
1
0.970028
0.93505
0.907184
0.889846
0.883714
0.895765
0.901399
0.893131
0.727415
0.338573
0.107397
0.0381113
0.0230077
0.021806
0.234375
0.933034
0.982436
0.997269
0.965398
0.902034
0.797111
0.649689
0.482294
0.356258
0.274336
0.228798
0.211063
0.209924
0.256777
0.304966
0.311587
0.205739
0.0990629
0.0526813
0.0240595
0.0198585
0.0167075
0.0283175
0.563939
0.982857
0.414445
0.333504
0.225284
0.115819
0.0401441
0.00746169
0.00152479
0.00112871
0.00094966
0.000974643
0.00130803
0.00218193
0.00408951
0.0133123
0.0537337
0.0980095
0.0950102
0.0877605
0.0226775
0.0120264
0.00734229
0.0257944
0.665484
0.0019606
0.000920836
0.000974663
0.000701903
0.000447685
0.000270799
0.000176952
0.000129119
0.00012084
0.00017038
0.000341271
0.000757167
0.00130914
0.00257626
0.0328042
0.0900333
0.08946
0.0889219
0.0886717
0.0220142
0.00603221
0.00451749
0.00428971
0.000121664
9.54959e-05
0.000104626
8.20598e-05
5.58335e-05
3.46279e-05
2.29724e-05
1.79971e-05
1.97811e-05
3.51946e-05
8.85726e-05
0.00023269
0.000485628
0.000889464
0.00212353
0.0267349
0.081255
0.0881589
0.0867029
0.0716615
0.00453427
0.00436656
0.00435271
1.47802e-05
1.13829e-05
1.38149e-05
1.07641e-05
7.30997e-06
4.65244e-06
3.19429e-06
2.6927e-06
3.29632e-06
6.63552e-06
1.98624e-05
5.74911e-05
0.000123329
0.000195114
0.000270115
0.00022984
0.00455273
0.0603132
0.0830241
0.0781153
0.0530517
0.00453984
0.00435081
1.74867e-06
1.38979e-06
1.75255e-06
1.41978e-06
9.9418e-07
6.51314e-07
4.65942e-07
4.21038e-07
5.73986e-07
1.27267e-06
3.65251e-06
1.13025e-05
2.7186e-05
3.86531e-05
3.74121e-05
4.22302e-05
8.11696e-05
0.000523335
0.0371012
0.0738421
0.069304
0.0602096
0.00860811
2.16183e-07
1.78276e-07
2.32258e-07
1.93717e-07
1.39136e-07
9.39631e-08
7.00378e-08
6.70024e-08
9.83447e-08
2.36779e-07
7.37738e-07
2.22294e-06
5.34363e-06
8.18923e-06
7.71437e-06
6.5889e-06
2.86255e-06
1.42428e-05
0.000123152
0.0176223
0.0676375
0.0689995
0.0689995
2.76099e-08
2.38583e-08
3.16181e-08
2.70163e-08
1.99077e-08
1.38791e-08
1.07287e-08
1.06889e-08
1.64577e-08
4.22815e-08
1.41834e-07
4.5117e-07
1.03724e-06
1.61938e-06
1.60184e-06
1.19911e-06
7.76766e-07
-1.39998e-07
-5.8646e-06
1.14303e-05
0.000820219
0.0450549
0.0689995
3.77018e-09
3.48217e-09
4.54964e-09
3.99588e-09
3.04671e-09
2.21592e-09
1.76983e-09
1.72857e-09
2.67122e-09
7.11406e-09
2.51319e-08
8.33428e-08
1.90355e-07
2.96922e-07
3.07524e-07
2.35831e-07
1.42409e-07
7.67368e-08
3.76714e-08
-1.19941e-06
-4.18799e-07
-2.54559e-05
0.0068155
6.50415e-10
6.4741e-10
8.0803e-10
7.35524e-10
5.98885e-10
4.66312e-10
3.73679e-10
3.4972e-10
4.79291e-10
1.09076e-09
4.00913e-09
1.39585e-08
3.2523e-08
4.98322e-08
5.34814e-08
4.23489e-08
3.09673e-08
4.40035e-08
8.61857e-08
4.3822e-09
2.5894e-09
9.26304e-10
7.95928e-10
1.43023e-10
1.51496e-10
1.80036e-10
1.66324e-10
1.39789e-10
1.15338e-10
9.02784e-11
5.5157e-11
6.2257e-11
1.55649e-10
5.32719e-10
2.05577e-09
4.97641e-09
7.77522e-09
8.5865e-09
7.08584e-09
6.26941e-09
8.34294e-09
1.20793e-08
2.19984e-08
3.1806e-08
1.44692e-08
3.68392e-09
7.38744e-11
8.27477e-11
8.53828e-11
8.09221e-11
6.86595e-11
5.13277e-11
2.69581e-11
4.79691e-12
4.81442e-13
-1.04474e-12
3.69597e-11
2.62095e-10
7.21043e-10
1.24637e-09
1.42397e-09
1.22839e-09
1.33349e-09
1.51309e-09
1.07903e-09
3.16659e-09
5.78114e-09
1.07241e-08
1.07171e-08
2.87756e-11
3.3224e-11
3.21903e-11
2.86858e-11
2.18946e-11
1.26601e-11
1.73327e-12
0
-3.12276e-11
-6.23265e-11
-8.21836e-27
-5.96836e-26
7.36848e-11
1.75906e-10
2.16722e-10
2.81287e-10
4.09559e-10
5.38937e-10
6.03068e-10
6.63873e-10
6.88932e-10
6.64338e-10
1.11675e-09
6.54228e-12
7.6406e-12
7.07521e-12
5.69038e-12
3.73194e-12
1.12601e-12
0
-1.45612e-11
-5.25797e-11
-1.14884e-10
-1.48213e-10
-4.60513e-11
-9.54215e-13
5.65565e-14
2.13028e-11
7.26175e-11
1.26963e-10
1.79565e-10
2.37242e-10
2.67885e-10
3.00051e-10
3.07553e-10
2.77701e-10
9.9785e-13
1.19077e-12
1.06207e-12
8.06043e-13
4.36767e-13
3.37586e-14
-2.50206e-12
-1.30196e-11
-3.70623e-11
-7.90909e-11
-1.27059e-10
-1.37143e-10
-7.74771e-11
-9.45622e-15
9.45622e-15
3.32251e-12
1.29393e-11
3.49157e-11
6.0815e-11
8.24105e-11
9.90205e-11
1.03313e-10
9.99469e-11
1.25643e-13
1.55155e-13
1.36686e-13
9.97597e-14
3.21622e-14
-1.38056e-13
-2.02434e-12
-7.46705e-12
-1.90552e-11
-3.94616e-11
-6.71671e-11
-8.97346e-11
-8.73564e-11
-6.00728e-11
-3.04064e-11
-9.57328e-12
-5.87486e-29
1.40049e-12
5.43981e-12
1.29182e-11
1.91823e-11
2.26006e-11
2.346e-11
1.48419e-14
1.8904e-14
1.64187e-14
1.07336e-14
9.78996e-16
-1.70865e-13
-1.05899e-12
-3.32124e-12
-7.89952e-12
-1.58901e-11
-2.74673e-11
-3.99536e-11
-4.66849e-11
-4.32025e-11
-3.19184e-11
-1.89748e-11
-9.28713e-12
-3.26962e-12
-2.47714e-13
2.56938e-13
1.29342e-12
2.45439e-12
3.07327e-12
1.66097e-15
2.16368e-15
1.83033e-15
9.16248e-16
-3.17667e-15
-9.38168e-14
-4.29013e-13
-1.21311e-12
-2.73605e-12
-5.35228e-12
-9.23209e-12
-1.39316e-11
-1.77917e-11
-1.89444e-11
-1.67214e-11
-1.22865e-11
-7.6595e-12
-4.00782e-12
-1.76243e-12
-6.01394e-13
-1.27237e-13
1.47064e-14
1.49159e-13
1.72632e-16
2.28879e-16
1.84606e-16
4.57525e-17
-3.64552e-15
-3.72062e-14
-1.42588e-13
-3.73199e-13
-8.04797e-13
-1.53109e-12
-2.60999e-12
-3.98446e-12
-5.31872e-12
-6.11927e-12
-5.99047e-12
-4.95538e-12
-3.4845e-12
-2.0932e-12
-1.0915e-12
-4.9751e-13
-2.00237e-13
-7.0476e-14
-2.01802e-14
1.65608e-17
2.22747e-17
1.62599e-17
1.22972e-18
-1.71338e-15
-1.18066e-14
-3.99361e-14
-9.80268e-14
-2.02817e-13
-3.74706e-13
-6.26851e-13
-9.52707e-13
-1.2933e-12
-1.54858e-12
-1.60873e-12
-1.42654e-12
-1.07401e-12
-6.89678e-13
-3.83293e-13
-1.87295e-13
-8.1755e-14
-3.23734e-14
-1.17428e-14
1.46657e-18
1.99325e-18
1.28756e-18
-1.48475e-17
-5.74451e-16
-3.12352e-15
-9.56857e-15
-2.2168e-14
-4.40217e-14
-7.87532e-14
-1.28465e-13
-1.92023e-13
-2.59868e-13
-3.15151e-13
-3.36343e-13
-3.08664e-13
-2.39931e-13
-1.57911e-13
-8.90042e-14
-4.36413e-14
-1.88948e-14
-7.52081e-15
-2.79252e-15
1.19859e-19
1.63482e-19
8.71144e-20
-9.05252e-18
-1.53605e-16
-7.03854e-16
-1.97999e-15
-4.34011e-15
-8.2578e-15
-1.42445e-14
-2.25037e-14
-3.2728e-14
-4.34315e-14
-5.21583e-14
-5.56457e-14
-5.1272e-14
-3.9848e-14
-2.59384e-14
-1.4241e-14
-6.68238e-15
-2.73075e-15
-1.05091e-15
-3.71599e-16
9.03086e-21
1.21431e-20
2.62465e-21
-3.0448e-18
-3.4252e-17
-1.36866e-16
-3.56177e-16
-7.38592e-16
-1.34197e-15
-2.21995e-15
-3.37092e-15
-4.71916e-15
-6.04745e-15
-7.04424e-15
-7.32131e-15
-6.57446e-15
-4.942e-15
-3.06306e-15
-1.56624e-15
-6.63678e-16
-2.5214e-16
-9.06291e-17
-2.22291e-17
6.26292e-22
8.05372e-22
-2.18856e-37
-7.64995e-19
-6.51998e-18
-2.31682e-17
-5.59728e-17
-1.09592e-16
-1.89277e-16
-2.98307e-16
-4.31649e-16
-5.75108e-16
-7.00666e-16
-7.75241e-16
-7.64256e-16
-6.47475e-16
-4.5278e-16
-2.54659e-16
-1.13826e-16
-4.12753e-17
-1.43406e-17
-4.44195e-18
8.95252e-18
3.98881e-23
4.97967e-23
-1.34871e-21
-1.56035e-19
-1.07474e-18
-3.43601e-18
-7.71398e-18
-1.42145e-17
-2.32055e-17
-3.45794e-17
-4.72175e-17
-5.91215e-17
-6.73356e-17
-6.91835e-17
-6.27854e-17
-4.82706e-17
-2.98416e-17
-1.41835e-17
-4.94071e-18
-1.59396e-18
-4.82642e-19
6.77931e-20
1.31859e-17
2.31174e-24
2.62222e-24
-5.44656e-22
-2.68195e-20
-1.54917e-19
-4.48711e-19
-9.35414e-19
-1.61536e-18
-2.47653e-18
-3.45935e-18
-4.40866e-18
-5.1144e-18
-5.34308e-18
-4.96756e-18
-4.00418e-18
-2.65647e-18
-1.34732e-18
-4.75501e-19
-1.32972e-19
-3.59203e-20
-5.86417e-21
3.55071e-19
1.30583e-17
1.18673e-25
8.00068e-26
-1.32838e-22
-3.96749e-21
-1.967e-20
-5.1818e-20
-1.00109e-19
-1.61205e-19
-2.30417e-19
-2.9884e-19
-3.51077e-19
-3.71284e-19
-3.48085e-19
-2.83958e-19
-1.94317e-19
-1.03659e-19
-3.80528e-20
-8.96862e-21
-2.08569e-21
-4.54844e-22
4.68617e-21
3.41478e-19
9.30245e-18
4.68212e-27
1.22876e-27
-2.46464e-23
-5.12199e-22
-2.21313e-21
-5.31252e-21
-9.48441e-21
-1.41617e-20
-1.87233e-20
-2.23112e-20
-2.38311e-20
-2.25552e-20
-1.84946e-20
-1.27476e-20
-6.97469e-21
-2.68541e-21
-5.6235e-22
-1.11241e-22
-2.0718e-23
5.86549e-25
3.69959e-21
2.10404e-19
4.52172e-18
6.0978e-29
-1.70179e-26
-3.74507e-24
-5.83014e-23
-2.21835e-22
-4.85436e-22
-7.98074e-22
-1.09827e-21
-1.33174e-21
-1.44157e-21
-1.37871e-21
-1.14347e-21
-7.95466e-22
-4.41794e-22
-1.77785e-22
-4.09895e-23
-6.2717e-24
-9.22757e-25
-1.32121e-25
2.43324e-24
1.60284e-21
7.97556e-20
1.52115e-18
-9.07708e-29
-6.28824e-27
-4.83312e-25
-5.90106e-24
-1.99133e-23
-3.9702e-23
-5.98698e-23
-7.54459e-23
-8.31534e-23
-8.07718e-23
-6.80127e-23
-4.82598e-23
-2.74682e-23
-1.15686e-23
-3.03086e-24
-3.71468e-25
-4.58439e-26
-5.58465e-27
-6.45354e-28
3.87473e-25
3.72285e-22
1.91414e-20
4.1864e-19
-8.44277e-29
-1.27253e-27
-5.41856e-26
-5.35268e-25
-1.60969e-24
-2.92025e-24
-4.02195e-24
-4.61001e-24
-4.57496e-24
-3.93605e-24
-2.86468e-24
-1.69239e-24
-7.54749e-25
-2.22812e-25
-3.15417e-26
-3.20271e-27
-3.11283e-28
-2.92827e-29
-1.80478e-30
1.23191e-26
4.8434e-23
3.36088e-21
1.11155e-19
-2.03264e-29
-1.92975e-28
-5.36594e-27
-4.38472e-26
-1.17886e-25
-1.94247e-25
-2.43235e-25
-2.51838e-25
-2.22846e-25
-1.67487e-25
-1.03272e-25
-4.92625e-26
-1.63499e-26
-3.05647e-27
-2.40456e-28
-1.9012e-29
-1.49771e-30
-1.15999e-31
7.087e-32
1.05537e-28
4.1272e-24
4.8798e-22
2.46747e-20
-3.35024e-30
-2.40132e-29
-4.75886e-28
-3.26963e-27
-7.87452e-27
-1.17592e-26
-1.33256e-26
-1.23759e-26
-9.66767e-27
-6.25677e-27
-3.19871e-27
-1.19046e-27
-2.76772e-28
-2.89325e-29
-1.88016e-30
-1.18615e-31
-7.3164e-33
-4.26599e-34
7.2015e-33
3.78017e-29
2.87248e-25
5.37136e-23
3.38507e-21
-4.40741e-31
-2.56492e-30
-3.82691e-29
-2.23803e-28
-4.83345e-28
-6.52555e-28
-6.66144e-28
-5.51136e-28
-3.76307e-28
-2.06643e-28
-8.5615e-29
-2.39357e-29
-3.63748e-30
-1.95199e-31
-1.04189e-32
-5.43598e-34
-2.76864e-35
-6.23689e-37
5.9477e-33
9.73588e-29
2.48493e-26
3.75786e-24
2.83901e-22
-4.93743e-32
-2.42096e-31
-2.82311e-30
-1.41834e-29
-2.74804e-29
-3.34602e-29
-3.06364e-29
-2.24347e-29
-1.32616e-29
-6.08957e-30
-1.99706e-30
-4.02623e-31
-3.7138e-32
-1.4496e-33
-5.62044e-35
-2.16679e-36
-8.27828e-38
6.65279e-38
9.12821e-33
1.10796e-28
3.61721e-27
1.5969e-25
1.42512e-23
-4.89571e-33
-2.0636e-32
-1.93133e-31
-8.3942e-31
-1.45917e-30
-1.59885e-30
-1.3081e-30
-8.4308e-31
-4.27803e-31
-1.62066e-31
-4.11157e-32
-5.73243e-33
-2.99905e-34
-9.15672e-36
-2.74135e-37
-8.04277e-39
-2.28577e-40
3.2214e-39
4.52485e-33
7.89372e-30
3.23153e-28
3.38809e-27
1.40149e-25
-4.41716e-34
-1.61614e-33
-1.2373e-32
-4.67743e-32
-7.29563e-32
-7.18196e-32
-5.23575e-32
-2.95736e-32
-1.27986e-32
-3.95762e-33
-7.61809e-34
-7.07395e-35
-2.01753e-36
-4.57018e-38
-1.0047e-39
-2.13118e-41
-4.36682e-43
6.42097e-43
2.46901e-38
1.18935e-32
2.10942e-30
2.80688e-29
9.94328e-29
-3.70338e-35
-1.1788e-34
-7.48534e-34
-2.47226e-33
-3.46144e-33
-3.05864e-33
-1.98366e-33
-9.79731e-34
-3.60458e-34
-9.05213e-35
-1.30947e-35
-7.94038e-37
-1.2682e-38
-1.90653e-40
-2.70429e-42
-3.55247e-44
-4.39565e-46
-5.20559e-48
4.09677e-43
4.38875e-36
6.60706e-33
1.80624e-31
5.66334e-31
-2.92701e-36
-8.09161e-36
-4.30662e-35
-1.24764e-34
-1.56907e-34
-1.24423e-34
-7.1763e-35
-3.09959e-35
-9.70788e-36
-1.98822e-36
-2.18651e-37
-8.96794e-39
-9.23108e-41
-7.28272e-43
-4.18814e-45
-1.96229e-47
-8.18916e-50
-3.19224e-52
-1.18863e-54
4.04325e-50
1.59531e-43
1.02083e-40
1.30993e-39
0.891625
0.891625
0.922162
0.98919
0.977659
0.953582
0.973982
0.988148
0.982849
0.98262
0.982774
0.986668
0.982966
0.982912
0.982733
0.983228
0.982987
0.982959
0.983154
0.983025
0.174381
0.438172
0.52762
0.529375
0.00436014
0.00455561
0.00803544
0.00963727
0.00458941
0.00483367
0.00493234
0.00495006
0.00714356
0.00521332
0.00534621
0.00664469
0.0689995
0.0565395
0.0460353
0.0405093
0.068212
0.0674244
0.0670269
0.0691556
0.0607319
0.0194125
0.000317113
0.0063587
4.09068e-10
1.36819e-10
1.89317e-11
-6.91932e-26
3.95678e-09
3.17793e-09
1.53072e-09
1.37195e-09
1.07113e-08
9.63504e-09
3.39629e-09
2.12002e-09
1.45268e-09
1.17964e-09
1.05054e-09
1.12493e-09
2.37166e-10
2.15736e-10
2.26369e-10
2.17829e-10
9.64747e-11
9.44142e-11
9.18035e-11
8.87845e-11
2.37132e-11
2.36306e-11
2.33453e-11
2.29032e-11
3.35616e-12
3.42872e-12
3.4631e-12
3.4883e-12
2.19572e-13
2.3955e-13
2.52918e-13
2.63098e-13
-6.46215e-15
7.78988e-16
7.69083e-15
1.03463e-14
-6.10674e-15
-2.97387e-15
-1.2855e-15
-3.98764e-16
-1.49084e-15
-7.48032e-16
-3.14782e-16
-6.22097e-17
-1.79936e-16
-5.95843e-17
3.06433e-17
1.98899e-16
6.23614e-18
5.39583e-17
1.51689e-16
3.14049e-16
3.79871e-17
8.38315e-17
1.91921e-16
3.84003e-16
4.45405e-17
9.60973e-17
2.17062e-16
4.33242e-16
4.30149e-17
9.1448e-17
2.01882e-16
4.07935e-16
2.97438e-17
6.16704e-17
1.34652e-16
2.61684e-16
1.39574e-17
2.81997e-17
6.15459e-17
1.09951e-16
4.59982e-18
9.43333e-18
2.0323e-17
4.08857e-17
1.32776e-18
3.04587e-18
8.90773e-18
2.93016e-17
4.06498e-19
1.25183e-18
7.38079e-18
3.16267e-17
1.07141e-19
4.62474e-19
7.53686e-18
2.37467e-17
1.66212e-20
1.12137e-19
2.0016e-18
6.12879e-18
1.67808e-21
1.94129e-20
4.36832e-19
1.01727e-18
1.12425e-22
2.32137e-21
5.43793e-20
7.74155e-20
1.68042e-24
3.92381e-23
5.28405e-22
5.2138e-22
4.48734e-28
3.38467e-26
5.42663e-25
3.85395e-25
2.23376e-31
1.80306e-32
7.87278e-35
3.1329e-39
1.64479e-40
8.96632e-43
-3.09813e-43
-6.77495e-40
0.99138
0.964366
0.331229
0.202606
0.510734
0.683505
0.683477
0.673371
0.114025
0.115837
0.534044
0.634714
0.63477
0.459469
0.0722048
0.0574941
0.0775479
0.0661333
0.0531259
0.985977
0.625736
0.222219
0.221468
0.576477
0.682973
0.683277
0.680684
0.259012
0.234562
0.591348
0.632789
0.493634
0.0789743
0.0620207
0.0762553
0.0935308
0.0929901
0.0551571
0.908495
0.359148
0.271514
0.560028
0.520185
0.383521
0.625205
0.676403
0.612862
0.62626
0.628254
0.630395
0.412748
0.0620452
0.061777
0.0933317
0.0935503
0.0935683
0.0574028
0.948444
0.797379
0.793355
0.534831
0.149447
0.239085
0.669572
0.673904
0.667346
0.645823
0.569467
0.460199
0.489026
0.0828307
0.0617872
0.0927861
0.0931474
0.0565945
0.0624114
0.981849
0.741429
0.393586
0.203537
0.294986
0.653618
0.66682
0.528093
0.291401
0.288589
0.0630644
0.0119857
0.416234
0.0722585
0.0632434
0.0921154
0.0105497
0.0230818
0.0578308
0.412671
0.17939
0.122876
0.4381
0.613641
0.607129
0.318044
0.041174
0.00445461
0.00400049
0.00401531
0.00919827
0.103546
0.0906725
0.0874275
0.0681696
0.00711873
0.00723233
0.00723591
0.00822684
0.0160501
0.130422
0.456074
0.459057
0.124803
0.0231455
0.0227372
0.0253296
0.00778076
0.00385277
0.0040439
0.00411095
0.0810553
0.0810685
0.0255315
0.00711873
0.00726698
0.00873614
0.00544797
0.0178077
0.109523
0.0990123
0.0253314
0.0241538
0.0227452
0.035723
0.0568884
0.0243434
0.00370708
0.00391982
0.0129775
0.0712905
0.0256098
0.00427856
0.00697665
0.00892986
0.00898472
0.00744826
0.0107677
0.0426849
0.0321115
0.0307719
0.0306282
0.0445561
0.0582989
0.0571169
0.00792366
0.00298651
0.0110357
0.0616864
0.0528444
0.00356407
0.0019905
0.00344596
0.00153989
0.000798285
0.0411812
0.0521217
0.0431901
0.0409696
0.0664509
0.0664657
0.0642821
0.0546912
0.00629276
0.000871696
0.00286932
0.0453494
0.0692492
0.0692102
0.0181996
0.00157392
2.57284e-05
2.38377e-06
1.61451e-06
0.0696934
0.0696934
0.0696934
0.0688258
0.0647324
0.0407624
0.0198498
0.000153861
5.64659e-05
0.000127497
0.00585128
0.0610846
0.0692492
0.0691695
0.0679877
0.00672306
1.56453e-05
2.95745e-05
9.75747e-07
0.0336095
0.0456976
0.02988
0.0164514
0.000737319
5.26536e-07
7.77415e-07
2.61913e-06
2.37272e-05
6.12367e-05
0.000240271
0.0159751
0.0662318
0.0688495
0.0622046
0.00249791
2.32658e-07
1.47569e-07
5.13011e-07
-6.93449e-10
-4.69418e-09
-2.40634e-25
9.34637e-10
8.21717e-09
8.56243e-08
1.01528e-06
9.3241e-05
0.000830839
0.000904049
0.000782741
4.76009e-05
0.00591101
0.0167609
0.00887275
1.26148e-06
-3.82269e-08
9.63434e-08
1.47569e-07
1.64414e-09
9.00275e-10
2.51529e-09
7.7036e-09
2.03121e-08
1.46165e-07
1.50365e-06
0.000238797
0.000544929
0.000332732
6.56169e-05
3.80573e-05
3.2633e-06
7.69874e-05
1.66331e-05
-5.98221e-07
1.31684e-08
1.35977e-08
1.66528e-07
2.56528e-09
1.41687e-09
1.17326e-08
7.6726e-08
2.51833e-08
2.92129e-07
1.18797e-05
1.39052e-05
9.156e-07
6.72922e-06
2.57566e-07
1.23568e-06
2.68342e-06
2.36804e-06
-1.59159e-08
1.86158e-08
1.31986e-08
1.33765e-07
6.86139e-07
2.05189e-09
1.58615e-09
3.07688e-09
1.83551e-08
1.6907e-08
6.45589e-08
4.6791e-08
1.53455e-07
6.7302e-07
5.00058e-07
2.29212e-07
8.41787e-07
7.48238e-07
1.19192e-07
2.49103e-08
2.49088e-08
1.8257e-08
9.72627e-07
3.48167e-06
1.68212e-10
2.68968e-10
4.24192e-11
4.33643e-11
4.41922e-11
6.55664e-11
1.98051e-09
1.85039e-06
4.32569e-06
4.48933e-08
3.81988e-08
1.43983e-07
3.05893e-07
4.17876e-07
1.2973e-07
2.46437e-08
1.03654e-07
6.27556e-06
1.51686e-05
7.13372e-11
3.19311e-11
4.18223e-11
4.23742e-11
4.27859e-11
4.41922e-11
4.967e-11
1.61136e-09
4.67757e-06
8.76055e-06
3.78227e-08
3.48567e-08
3.24738e-08
3.26929e-08
3.25425e-08
2.94331e-08
8.98956e-07
7.85409e-05
0.000409535
2.11245e-11
1.94633e-11
1.90274e-11
3.22592e-11
4.336e-11
5.42933e-11
5.51174e-11
5.47315e-11
2.97816e-07
1.14058e-05
3.25595e-06
3.74004e-08
3.68472e-08
7.07977e-08
3.86611e-08
3.60421e-08
6.4726e-08
0.000252795
0.00335451
3.45329e-12
3.35555e-12
3.56472e-12
4.90017e-12
9.50373e-12
2.59122e-11
6.89798e-11
5.4878e-11
1.53594e-11
3.69767e-06
4.27238e-06
3.48725e-06
5.81112e-07
8.12583e-08
5.38261e-08
2.27261e-08
1.8161e-09
0.000371276
0.00408827
2.9099e-13
3.55896e-13
4.87116e-13
8.69234e-13
2.26233e-12
8.07216e-12
2.34887e-11
2.24501e-11
1.4897e-11
1.53594e-11
2.40017e-06
3.4739e-06
3.45841e-06
1.16302e-06
1.15112e-08
1.0044e-08
1.73566e-09
0.00035022
0.00409165
1.26831e-14
2.10622e-14
5.21595e-14
1.87572e-13
1.00896e-12
5.24366e-12
1.35715e-11
1.51744e-11
1.47164e-11
1.29283e-09
1.81155e-09
8.98012e-07
2.21604e-06
1.38433e-06
7.91389e-08
5.02101e-09
1.48105e-09
0.000162654
0.00408769
5.40565e-16
4.67134e-15
2.74864e-14
1.49089e-13
1.08456e-12
8.44637e-12
1.45982e-11
1.45295e-11
1.46081e-11
2.83956e-08
7.42852e-08
7.45737e-08
1.04522e-07
6.77135e-08
4.50912e-08
1.0995e-08
1.26809e-09
2.42902e-05
0.00407234
6.48209e-16
6.88316e-15
5.77754e-14
3.86718e-13
2.25751e-12
1.47626e-11
3.71372e-11
1.96411e-11
1.47164e-11
3.02492e-08
8.14867e-08
8.17551e-08
2.51128e-08
1.34755e-09
1.27112e-09
1.26809e-09
1.26809e-09
1.26809e-09
0.00402106
1.02808e-15
1.22268e-14
1.28376e-13
9.29565e-13
4.93539e-12
2.29401e-11
8.20733e-11
8.0878e-11
1.60349e-11
6.63028e-10
4.23057e-08
6.49922e-08
2.80757e-08
2.40268e-09
2.03193e-09
1.28673e-09
1.26809e-09
1.27001e-09
0.00392667
1.38706e-15
2.15806e-14
2.32188e-13
1.62727e-12
7.98722e-12
3.02286e-11
9.80796e-11
1.93293e-10
1.83015e-10
1.83741e-10
1.73185e-09
7.14693e-09
7.64657e-09
4.06954e-09
2.22705e-09
1.27987e-09
1.28439e-09
1.29044e-09
0.00343001
1.77889e-15
3.53694e-14
3.34069e-13
2.19152e-12
1.03712e-11
3.84222e-11
1.17743e-10
2.39916e-10
2.94517e-10
2.87624e-10
2.88155e-10
3.03073e-10
5.53216e-10
1.36427e-09
1.64168e-09
1.21149e-09
4.14708e-09
1.38561e-09
0.000927283
2.018e-15
4.70482e-14
3.77153e-13
2.49691e-12
1.41142e-11
5.47886e-11
1.37887e-10
2.92357e-10
3.12025e-10
2.89346e-10
2.90643e-10
3.05657e-10
3.86821e-10
7.64838e-10
5.97403e-10
6.05743e-10
4.20711e-08
3.41962e-09
4.5947e-05
1.70271e-15
4.23132e-14
2.56195e-13
2.52418e-12
2.19456e-11
8.30339e-11
1.62711e-10
2.71025e-10
6.53431e-10
1.90474e-09
1.61933e-09
8.21924e-10
5.56459e-10
5.91984e-10
5.94848e-10
7.02353e-10
6.08467e-08
1.48607e-08
1.412e-08
1.24088e-15
2.64569e-14
1.41917e-13
2.08635e-12
1.93282e-11
9.05169e-11
1.37456e-10
3.09826e-10
2.83781e-09
4.32677e-09
4.38698e-09
2.31327e-09
6.74143e-10
5.94848e-10
5.97403e-10
1.70913e-08
6.08467e-08
2.67116e-08
1.86322e-08
1.42565e-15
2.47761e-14
1.3239e-13
1.93809e-12
1.85761e-11
1.86863e-10
3.44519e-10
4.95688e-10
1.40392e-09
3.19814e-09
5.4262e-09
5.37249e-09
3.47522e-09
1.09875e-09
5.99626e-10
1.08582e-08
6.08467e-08
3.18432e-08
1.96336e-08
7.99924e-15
1.21213e-13
4.54501e-13
5.13406e-12
5.9259e-11
3.99529e-11
1.34484e-09
5.69569e-10
5.92242e-10
6.18269e-10
3.94271e-09
1.16856e-08
1.02664e-08
2.43473e-09
4.76165e-09
3.38262e-08
3.8543e-08
2.67323e-08
2.31074e-08
2.13912e-14
3.53517e-13
1.46734e-12
2.79629e-12
2.48495e-11
1.25703e-11
5.84341e-10
1.50383e-08
5.61806e-09
2.95692e-09
1.01488e-08
1.21128e-08
1.21128e-08
5.10774e-09
1.49474e-09
1.5133e-08
1.44609e-08
1.57699e-08
3.39315e-08
2.88311e-14
5.04744e-13
2.59013e-12
5.48328e-12
1.25207e-11
1.24546e-11
1.25703e-11
2.069e-08
1.41429e-07
1.05121e-07
1.59362e-08
4.08585e-09
4.51413e-09
2.79601e-09
1.43265e-09
1.30101e-09
1.30781e-09
1.44965e-08
9.87605e-08
2.02557e-14
5.11921e-13
3.0285e-12
7.7288e-12
1.47898e-11
1.26874e-11
1.28639e-11
5.41833e-08
1.41429e-07
1.22649e-07
9.32512e-09
1.37932e-09
1.31278e-09
1.2977e-09
1.30113e-09
1.29774e-09
5.96088e-07
4.84761e-06
1.18875e-05
8.12045e-15
2.7432e-13
2.36642e-12
7.82473e-12
2.09717e-11
1.83561e-11
1.30767e-11
1.77822e-08
1.41429e-07
7.00348e-08
1.71822e-09
1.59059e-09
6.82754e-07
1.16907e-06
5.39677e-07
1.30113e-09
1.37318e-05
7.22563e-05
3.84592e-05
1.63929e-15
9.05619e-14
1.2293e-12
6.39575e-12
2.26175e-11
9.16867e-11
8.83398e-11
1.00245e-10
1.30429e-09
1.01784e-07
5.53239e-07
8.1856e-06
1.60199e-05
1.55991e-05
4.44563e-06
1.4639e-08
6.06449e-05
8.48117e-05
4.16534e-05
2.31892e-16
1.95732e-14
4.05883e-13
3.67267e-12
1.97096e-11
2.04618e-10
6.78914e-10
4.03833e-10
4.06149e-10
4.2855e-10
1.08557e-05
1.60199e-05
1.60281e-05
1.21404e-05
5.61493e-07
4.27988e-05
8.48117e-05
8.46997e-05
3.15774e-05
2.40563e-18
6.75878e-16
3.95889e-14
9.49036e-13
4.73304e-12
3.30137e-10
1.70268e-09
1.72687e-09
5.30705e-10
5.00405e-10
3.14926e-06
1.60271e-05
1.60265e-05
8.10154e-06
3.97133e-07
2.54545e-06
6.10177e-05
3.7434e-05
2.42456e-05
1.32613e-22
2.44026e-18
6.67e-16
7.64159e-14
1.31244e-12
4.01156e-11
1.64235e-09
2.56832e-09
1.58347e-09
5.41953e-10
5.51391e-10
3.7922e-06
5.5555e-06
1.55328e-06
3.74922e-07
8.08392e-09
2.62894e-08
3.42927e-07
4.16416e-05
1.5706e-28
1.00355e-21
7.29936e-18
2.64982e-15
1.83423e-13
4.44581e-12
2.13553e-10
1.8661e-09
1.92741e-09
7.33466e-10
6.16356e-10
1.33609e-09
2.51578e-09
1.16553e-09
2.48714e-08
6.49696e-09
7.90348e-12
1.62793e-11
4.16109e-05
3.62723e-37
1.29759e-29
4.37154e-22
6.73729e-18
2.60896e-15
1.67334e-13
2.77193e-12
1.82186e-10
7.52725e-10
6.45698e-10
6.45698e-10
6.55235e-10
1.37528e-09
8.54813e-10
5.50016e-10
2.04869e-10
5.77794e-12
-3.75991e-27
3.82803e-05
)
;

boundaryField
{
    leftWall
    {
        type            zeroGradient;
    }
    rightWall
    {
        type            zeroGradient;
    }
    lowerWall
    {
        type            zeroGradient;
    }
    atmosphere
    {
        type            inletOutlet;
        inletValue      uniform 0;
        value           nonuniform List<scalar> 
46
(
-2.92701e-36
-8.09161e-36
-4.30662e-35
-1.24764e-34
-1.56907e-34
-1.24423e-34
-7.1763e-35
-3.09959e-35
-9.70788e-36
-1.98822e-36
-2.18651e-37
-8.96794e-39
-9.23108e-41
0
0
0
0
0
0
0
0
0
0
0
0
0
0
0
0
0
0
0
0
0
0
0
6.45698e-10
6.45698e-10
6.55235e-10
1.37528e-09
8.54813e-10
5.50016e-10
2.04869e-10
0
0
3.82803e-05
)
;
    }
    defaultFaces
    {
        type            empty;
    }
}


// ************************************************************************* //
