/*--------------------------------*- C++ -*----------------------------------*\
| =========                 |                                                 |
| \\      /  F ield         | OpenFOAM: The Open Source CFD Toolbox           |
|  \\    /   O peration     | Version:  v2012                                 |
|   \\  /    A nd           | Website:  www.openfoam.com                      |
|    \\/     M anipulation  |                                                 |
\*---------------------------------------------------------------------------*/
FoamFile
{
    version     2.0;
    format      ascii;
    class       volScalarField;
    location    "0.95";
    object      epsilon;
}
// * * * * * * * * * * * * * * * * * * * * * * * * * * * * * * * * * * * * * //

dimensions      [0 2 -3 0 0 0 0];


internalField   nonuniform List<scalar> 
2268
(
0.0111289
0.0279994
0.043889
0.0587874
0.072674
0.0858906
0.0987039
0.111061
0.122784
0.133752
0.144056
0.154139
0.165052
0.179276
0.198177
0.222671
0.251502
0.279758
0.295913
0.278934
0.208488
0.104117
0.0271527
0.016853
0.0247372
0.0328957
0.040128
0.0466592
0.0525252
0.0577866
0.0624494
0.0665085
0.0699932
0.0730401
0.075981
0.0794702
0.084794
0.0929506
0.104557
0.11992
0.137187
0.150423
0.149354
0.123227
0.0761221
0.0408551
0.0242802
0.0255048
0.0320054
0.0377539
0.042643
0.0467741
0.0503088
0.0533562
0.0559977
0.0583431
0.0606233
0.0632883
0.067102
0.0732714
0.0830792
0.0978355
0.118199
0.142094
0.162351
0.167274
0.145991
0.097221
0.0641598
0.0303324
0.0267138
0.032618
0.0378374
0.0420183
0.0453756
0.0481707
0.0505894
0.0527747
0.0549048
0.0573085
0.0605853
0.0657198
0.0742253
0.0879573
0.108904
0.137992
0.172196
0.201831
0.21268
0.193228
0.137437
0.0897425
0.035347
0.0280118
0.0336408
0.0386074
0.0423814
0.045286
0.0476752
0.0498013
0.0518635
0.0541143
0.0570035
0.0613349
0.0684272
0.0803182
0.0996591
0.129175
0.169718
0.216322
0.255937
0.27253
0.255589
0.196724
0.123911
0.0395421
0.0292987
0.0347848
0.0396059
0.0431062
0.0457091
0.0478548
0.0498569
0.0519747
0.0545508
0.0581932
0.063981
0.0736939
0.090096
0.116833
0.157228
0.211206
0.270475
0.318344
0.339193
0.326414
0.273339
0.178634
0.0430349
0.0305073
0.0359285
0.0406557
0.0439558
0.0463471
0.048349
0.0503349
0.0526338
0.0557051
0.0603666
0.0680597
0.0811663
0.103376
0.139434
0.192712
0.260742
0.330491
0.382446
0.404829
0.398208
0.362383
0.287401
0.0458482
0.0315798
0.0369981
0.0416623
0.0448123
0.0470572
0.0489877
0.0510384
0.0536255
0.0573656
0.0633566
0.0735066
0.0909372
0.120452
0.167833
0.235322
0.316143
0.391706
0.441748
0.46217
0.462853
0.455066
0.568546
0.3341
0.395932
0.554022
0.727017
0.886804
1.03224
1.18104
1.31056
1.43313
1.55707
1.62507
1.44011
0.918557
0.553114
0.41604
0.367219
0.320573
0.223352
0.0756457
0.386432
0.519555
0.536911
0.524188
0.533675
0.562939
0.612203
0.658876
0.702567
0.752836
0.791457
0.730072
0.512982
0.331449
0.260058
0.235919
0.212478
0.166446
0.0720464
0.536876
0.523386
0.489483
0.468725
0.483105
0.527068
0.584704
0.62258
0.648682
0.704343
0.788357
0.790496
0.604641
0.378147
0.254522
0.208646
0.183758
0.151801
0.0921273
0.634371
0.514746
0.471512
0.46422
0.493205
0.580679
0.674083
0.707848
0.69531
0.745082
0.879631
0.941979
0.795403
0.524918
0.3184
0.215768
0.175145
0.147924
0.106952
0.707177
0.506372
0.468704
0.47714
0.543749
0.714206
0.821037
0.856717
0.806541
0.828646
0.992029
1.09826
1.01813
0.753735
0.479611
0.287254
0.209766
0.166795
0.122338
0.764009
0.499825
0.473456
0.516575
0.660189
0.77235
0.808264
0.888284
0.892516
0.90497
1.00996
1.1611
1.19476
1.03423
0.770747
0.497463
0.347628
0.289264
0.163986
0.813591
0.499867
0.485758
0.57125
0.704317
0.736825
0.746036
0.781989
0.834899
0.910541
0.978746
1.11857
1.19505
1.13256
0.944838
0.728198
0.575586
0.491499
0.437898
0.864354
0.511007
0.510582
0.619015
0.700693
0.702267
0.707074
0.730307
0.804727
0.925203
0.964479
1.05358
1.11755
1.1064
1.01193
0.809231
0.647035
0.541088
0.693189
0.0489203
0.0329849
0.0384847
0.0430818
0.046057
0.04815
0.0500525
0.0523067
0.0555089
0.0606161
0.0693225
0.0844606
0.110403
0.153102
0.218541
0.304284
0.395422
0.467948
0.505474
0.518042
0.526219
0.539894
0.571889
0.0493453
0.0334128
0.0391166
0.043777
0.0467493
0.048861
0.0509134
0.0536403
0.0580468
0.0659617
0.0807193
0.107664
0.153971
0.225935
0.323168
0.430017
0.523389
0.575035
0.575341
0.565807
0.569079
0.569419
0.548176
0.0475298
0.0327025
0.0386379
0.0436029
0.0468779
0.0492749
0.0516825
0.0550859
0.061188
0.0735523
0.0991637
0.148834
0.235073
0.361177
0.504683
0.650245
0.759828
0.75821
0.667161
0.625613
0.628838
0.639006
0.64349
0.0437717
0.0311999
0.0373636
0.0428817
0.0467872
0.0496593
0.0524927
0.0567395
0.0652637
0.0852902
0.13363
0.236899
0.411756
0.650625
0.886516
1.07763
1.13376
1.0267
0.885013
0.763025
0.745512
0.763844
0.811093
0.0418185
0.0305791
0.0362655
0.0423459
0.047373
0.0509059
0.0540601
0.0606011
0.0765196
0.118887
0.219406
0.399492
0.664663
0.988733
1.16875
1.19362
1.09024
0.948351
0.841829
0.836762
0.825262
0.857579
0.892121
0.0616068
0.0309718
0.0367588
0.0443333
0.054446
0.0701553
0.097073
0.155836
0.293038
0.557954
0.929022
1.19849
1.22048
1.10015
1.02132
0.941207
0.838731
0.745319
0.703602
0.729574
0.840003
0.894129
0.917011
0.0785084
0.039969
0.0448839
0.0514952
0.0615164
0.0794589
0.116346
0.1944
0.348783
0.603257
0.907145
1.10529
1.10202
0.998235
0.904356
0.775449
0.703543
0.663116
0.658717
0.6841
0.759663
0.906188
0.981217
0.0853016
0.0480824
0.0489489
0.0538732
0.0646941
0.0861084
0.129787
0.216222
0.371517
0.604706
0.863701
1.02799
1.0271
0.949621
0.887934
0.785147
0.700883
0.675788
0.688217
0.725564
0.776995
0.874465
0.992912
0.0905843
0.0520377
0.0518134
0.0566112
0.0676773
0.0897761
0.13359
0.216365
0.357994
0.562707
0.787844
0.939871
0.961087
0.931898
0.965035
1.02874
0.910967
0.758366
0.757686
0.784729
0.832732
0.892382
0.963233
0.0968498
0.054481
0.0532883
0.0577199
0.0678879
0.0880088
0.126851
0.198079
0.317259
0.488837
0.683678
0.83255
0.878917
0.870546
0.92806
1.09902
1.26529
1.15585
0.870883
0.85652
0.867671
0.906495
0.948367
0.104413
0.0572727
0.0544854
0.0579258
0.0663864
0.0830638
0.114612
0.171311
0.265259
0.402084
0.565452
0.70837
0.775999
0.784351
0.821018
0.96511
1.23831
1.50067
1.44493
1.01542
0.913811
0.901927
0.914277
0.112609
0.0607139
0.0561365
0.0582803
0.0647886
0.077773
0.102043
0.145066
0.216031
0.320795
0.451183
0.57654
0.656186
0.684341
0.708441
0.793172
0.982451
1.27292
1.59988
1.69794
1.40213
0.960763
0.914555
0.120882
0.0643881
0.058114
0.0590583
0.0638914
0.0737871
0.0920344
0.123819
0.175637
0.252426
0.351061
0.453941
0.533782
0.577087
0.602174
0.648063
0.751392
0.93175
1.18942
1.48072
1.64909
1.58204
1.22874
0.127989
0.067624
0.0599791
0.0599872
0.0635545
0.0710981
0.0847545
0.107989
0.145171
0.199981
0.271784
0.351482
0.422551
0.472078
0.503061
0.533864
0.587119
0.679802
0.819647
1.00396
1.19767
1.3266
1.31899
0.133431
0.0700924
0.0614212
0.060771
0.0634692
0.0693568
0.0797277
0.0968247
0.12349
0.162265
0.213464
0.272772
0.331002
0.378756
0.413351
0.441096
0.47324
0.520217
0.588088
0.677254
0.78421
0.886118
0.957731
0.13708
0.0717049
0.0623038
0.0612117
0.0633417
0.0681158
0.0762325
0.0890949
0.108511
0.136161
0.172579
0.215861
0.261206
0.302699
0.336737
0.364176
0.389434
0.417815
0.453152
0.496791
0.548744
0.609364
0.672471
0.138969
0.0724899
0.0626055
0.0612204
0.0629779
0.0670094
0.0736056
0.0836069
0.0981425
0.118297
0.14456
0.176147
0.210645
0.244627
0.275207
0.301416
0.324348
0.346187
0.36898
0.39397
0.422048
0.455993
0.496811
0.13923
0.0725299
0.06237
0.0607894
0.0622888
0.0658081
0.0713668
0.0794359
0.0907062
0.105868
0.125301
0.148715
0.174918
0.202011
0.228045
0.251775
0.27298
0.292228
0.310349
0.328067
0.346144
0.366464
0.391285
0.138067
0.0719326
0.0616742
0.0599638
0.061267
0.0644077
0.0692298
0.0759665
0.0850287
0.09685
0.111705
0.12951
0.149682
0.171183
0.192791
0.213475
0.23264
0.250141
0.266101
0.280743
0.294454
0.308319
0.324295
0.135731
0.0708212
0.0606135
0.0588205
0.0599601
0.0627961
0.0670632
0.0728437
0.0803717
0.0899161
0.101668
0.115622
0.131495
0.148718
0.166546
0.184227
0.201161
0.216954
0.231385
0.244357
0.255952
0.266765
0.278258
0.132501
0.0693281
0.0592917
0.0574521
0.0584466
0.0610191
0.06484
0.0698983
0.076317
0.0842604
0.0938575
0.105131
0.117941
0.131973
0.146769
0.161808
0.176588
0.190679
0.203734
0.215499
0.225885
0.235198
0.244497
0.128664
0.0675884
0.0578141
0.0559561
0.056818
0.0591521
0.0625945
0.0670779
0.0726571
0.07943
0.0874831
0.0968443
0.107446
0.119108
0.131544
0.144395
0.157272
0.169785
0.181574
0.192341
0.201918
0.210454
0.218706
0.1245
0.0657328
0.0562817
0.0544267
0.0551663
0.0572799
0.0603895
0.064395
0.0693099
0.0751911
0.0820971
0.090054
0.0990301
0.108919
0.119539
0.130639
0.141922
0.153067
0.163748
0.173675
0.182665
0.190784
0.198568
0.120272
0.0638802
0.0547855
0.0529487
0.0535754
0.055484
0.0582946
0.0618901
0.0662595
0.0714353
0.0774581
0.0843515
0.0921028
0.100649
0.10987
0.119591
0.129587
0.139601
0.149358
0.158602
0.167151
0.175064
0.182685
0.116213
0.0621326
0.053403
0.0515933
0.0521158
0.0538334
0.0563725
0.0596088
0.0635178
0.0681178
0.0734388
0.0795031
0.0863092
0.0938209
0.10196
0.110601
0.119578
0.128686
0.137703
0.146412
0.154654
0.162485
0.170113
0.112512
0.0605712
0.0521947
0.0504156
0.0508414
0.0523811
0.0546724
0.0575896
0.0611021
0.0652204
0.0699689
0.0753698
0.0814298
0.0881308
0.0954225
0.103218
0.111393
0.11979
0.12823
0.13653
0.144592
0.152421
0.16015
0.109314
0.0592558
0.051204
0.0494538
0.0497889
0.0511629
0.0532272
0.0558585
0.0590244
0.0627318
0.0670028
0.0718606
0.0773185
0.0833716
0.0899908
0.097117
0.10466
0.1125
0.120494
0.128502
0.136466
0.144349
0.152239
0.106716
0.0582271
0.0504586
0.0487314
0.0489801
0.0501995
0.0520552
0.0544287
0.0572881
0.0606394
0.0645043
0.0689077
0.0738682
0.0793918
0.0854651
0.0920514
0.0990872
0.106482
0.114124
0.121942
0.129853
0.137823
0.145904
0.104783
0.0575101
0.0499744
0.0482606
0.0484257
0.0495005
0.0511641
0.0533038
0.0558895
0.0589277
0.0624407
0.0664552
0.0709946
0.0760729
0.0816899
0.0878263
0.0944403
0.101466
0.108841
0.116504
0.124384
0.132449
0.140729
0.103554
0.0571214
0.0497608
0.0480479
0.0481312
0.0490701
0.0505564
0.0524827
0.0548216
0.0575807
0.0607831
0.0644569
0.0686293
0.0733209
0.0785414
0.0842858
0.0905305
0.0972367
0.104378
0.111895
0.119738
0.127881
0.136341
0.103069
0.0570768
0.0498283
0.0481012
0.0481025
0.048913
0.0502344
0.0519647
0.0540789
0.0565857
0.0595087
0.0628771
0.0667203
0.0710637
0.0759247
0.0813094
0.0872082
0.0936212
0.100521
0.107873
0.115644
0.123817
0.132408
0.103387
0.0574029
0.0501962
0.0484363
0.0483527
0.0490395
0.0502057
0.0517538
0.053661
0.0559367
0.0586044
0.0616932
0.0652334
0.0692531
0.073775
0.0788135
0.0843804
0.090484
0.0971129
0.104251
0.111884
0.120011
0.128651
0.104614
0.0581483
0.0509014
0.049083
0.0489062
0.0494687
0.0504847
0.0518603
0.0535743
0.0556361
0.0580679
0.0608977
0.0641544
0.0678664
0.0720597
0.0767551
0.0819792
0.0877427
0.09405
0.100903
0.108308
0.11628
0.124853
0.106925
0.0593957
0.0520051
0.050089
0.049799
0.0502275
0.0510913
0.0522987
0.0538297
0.0556923
0.0579068
0.0604971
0.0634889
0.0669081
0.0707801
0.0751323
0.07999
0.0853717
0.091294
0.0977747
0.104838
0.11252
0.120873
0.110572
0.0612708
0.0535957
0.051517
0.0510742
0.0513443
0.0520434
0.0530809
0.0544361
0.056115
0.0581333
0.0605093
0.0632615
0.066409
0.0699733
0.0739788
0.0784477
0.0834031
0.0888706
0.0948811
0.101476
0.108711
0.116659
0.115867
0.0639382
0.0557798
0.0534327
0.0527679
0.0528348
0.0533442
0.0542036
0.0553896
0.0569039
0.0587564
0.0609567
0.0635114
0.0664262
0.0697101
0.0733747
0.0774384
0.0819263
0.0868702
0.0923115
0.098305
0.104924
0.112263
0.123109
0.0675736
0.0586556
0.0558789
0.0548857
0.0546816
0.0549641
0.0556327
0.0566577
0.0580353
0.0597685
0.0618566
0.0642887
0.0670448
0.0701004
0.0734482
0.0771012
0.0810871
0.0854446
0.0902236
0.0954886
0.101325
0.107842
0.132434
0.0722956
0.0622605
0.0588344
0.0573715
0.0568109
0.0568218
0.0572864
0.0581641
0.0594451
0.0611294
0.0632096
0.0656518
0.0683858
0.0713099
0.0743873
0.0776324
0.0810865
0.0848014
0.0888363
0.0932615
0.098167
0.103667
0.143604
0.0780543
0.0664946
0.0621628
0.060075
0.0590715
0.0587707
0.0590243
0.0597759
0.0610138
0.0627478
0.0649822
0.0676682
0.0706425
0.0735958
0.0764617
0.0792948
0.0821803
0.0851982
0.0884198
0.0919179
0.0957779
0.100108
0.155815
0.0844894
0.0710276
0.0655616
0.0627288
0.061228
0.0605989
0.0606488
0.0613025
0.0625561
0.0644571
0.0670751
0.0704113
0.074173
0.0773831
0.0800602
0.0824285
0.0846782
0.086936
0.0892867
0.0917989
0.0945449
0.0976126
0.167573
0.0907569
0.0752041
0.0685289
0.0649477
0.0629745
0.0620494
0.0619268
0.0625138
0.0638258
0.0659872
0.0692415
0.073884
0.0797666
0.0834037
0.0857246
0.0874489
0.0889363
0.0903542
0.0917861
0.0932851
0.0949003
0.0966899
0.176485
0.0952497
0.0779665
0.0703749
0.0662673
0.0639798
0.0628654
0.0626366
0.0631878
0.0645555
0.0669521
0.0708931
0.0775178
0.0895222
0.0928424
0.0940996
0.0948012
0.0953385
0.0958267
0.0963065
0.0967983
0.0973197
0.0978916
0.910726
0.595535
0.541929
0.84378
0.578159
0.614833
0.618098
0.625764
0.63734
0.628536
0.620054
0.629945
0.825092
0.808799
0.780772
0.756058
0.918688
0.908607
0.877516
0.831355
0.931539
0.915375
0.880909
0.839312
0.972973
0.93595
0.899434
0.864559
1.10952
1.18238
1.24718
1.29616
1.04094
1.10139
1.16141
1.22656
0.992102
1.01901
1.03681
1.04843
0.933366
0.946152
0.952705
0.952129
0.896763
0.902087
0.923107
0.922634
0.955863
0.966638
1.01021
0.995611
1.23671
1.20244
1.18009
1.13628
1.0022
1.03685
1.06225
1.06509
0.723371
0.762309
0.797945
0.825008
0.5333
0.563142
0.593927
0.623609
0.414635
0.434705
0.457109
0.481239
0.339447
0.352764
0.368265
0.385835
0.288808
0.298029
0.308876
0.321358
0.252567
0.259432
0.267403
0.276494
0.225476
0.231026
0.2373
0.244296
0.204692
0.20953
0.214842
0.220609
0.188527
0.193006
0.197803
0.202889
0.175882
0.18021
0.184762
0.189506
0.165972
0.170272
0.174743
0.179355
0.158187
0.162535
0.167027
0.171634
0.152024
0.156464
0.161036
0.165715
0.14704
0.151593
0.156278
0.161072
0.142839
0.147507
0.152313
0.157238
0.139067
0.143833
0.148747
0.153795
0.135416
0.140241
0.145231
0.150372
0.131638
0.136464
0.141472
0.146652
0.127559
0.132304
0.137248
0.142387
0.123098
0.127655
0.132428
0.137416
0.118275
0.122522
0.126993
0.131694
0.113236
0.117038
0.121062
0.125319
0.108257
0.111482
0.114913
0.118564
0.103738
0.10628
0.108994
0.111896
0.100188
0.101982
0.103902
0.10596
0.0981886
0.099226
0.100336
0.101526
0.0983694
0.0986982
0.0990496
0.0994254
0.66493
0.532129
0.546418
0.651163
0.680081
0.664932
0.676039
0.705862
0.830949
1.00135
0.972226
0.99294
1.03974
1.03373
0.979264
0.912997
0.754324
0.596662
0.860196
0.601168
0.565832
0.608876
0.686283
0.656351
0.667784
0.694341
0.745156
0.912508
1.06668
1.0028
0.983199
1.02298
1.04198
1.00786
1.07691
0.852334
0.549125
0.714953
0.643162
0.656509
0.683678
0.694893
0.699097
0.735876
0.760668
0.822858
0.955732
1.03982
0.994157
1.00194
1.07774
1.13498
1.08921
1.13765
0.754998
0.409936
0.48189
0.733106
0.716385
0.7335
0.817089
0.841326
0.837796
0.832008
0.889055
0.964958
0.980025
0.968494
1.04471
1.16496
1.23711
1.15024
1.16825
0.695271
0.37828
0.338217
0.774253
0.772156
0.881473
0.956537
0.928331
0.887778
0.89502
0.945215
0.971414
0.946312
0.983106
1.18134
1.26935
1.34871
1.24855
1.35071
1.01223
0.887876
0.808407
0.804596
0.868798
0.944796
0.96138
0.923804
0.914954
0.947378
0.994695
0.917565
0.929348
1.1186
1.43434
1.38794
1.49156
1.41708
1.73704
2.18852
3.67608
2.00261
0.859751
0.951397
0.988628
0.945798
0.915047
0.931123
0.934215
0.866542
0.758326
0.829181
1.19296
1.75053
1.62991
1.74047
1.77833
2.36034
3.89267
5.36805
2.29444
1.32721
1.25689
1.13643
1.00738
0.921839
0.867894
0.798326
0.713634
0.695407
0.805628
1.1405
1.64542
1.74367
1.95261
2.16096
3.13059
4.64628
5.70921
2.52442
1.28809
1.25524
1.15513
0.99502
0.868185
0.781335
0.719782
0.676425
0.699293
0.904181
1.26793
1.47169
1.56382
1.90762
2.31989
3.18475
4.87847
7.60988
2.73466
1.0576
1.05239
1.00749
0.90465
0.817396
0.752764
0.702382
0.675829
0.753855
1.08343
1.296
1.36421
1.4374
1.73792
2.12409
2.82324
4.95229
9.70493
5.70119
0.945555
0.929396
0.899314
0.846846
0.791908
0.741236
0.70482
0.712203
1.01452
1.20327
1.29711
1.29267
1.34694
1.56083
1.85247
2.30176
4.80364
10.3782
7.91513
0.895035
0.870477
0.852709
0.82621
0.796217
0.768306
0.791801
1.04531
1.23462
1.21592
1.29589
1.29971
1.33174
1.47835
1.72389
2.19279
5.33492
9.07909
7.63035
0.921957
0.878945
0.859623
0.843807
0.883581
0.989051
1.11864
1.21886
1.24176
1.2544
1.31303
1.38485
1.42567
1.54691
1.8195
2.8428
6.93144
7.06498
6.46979
1.04303
0.942259
0.907711
0.930022
1.01626
1.15045
1.27344
1.33475
1.33256
1.34187
1.46491
1.67405
1.7332
1.9248
2.63358
4.34307
6.00868
5.00526
5.18428
1.03236
0.964243
0.951403
0.997267
1.09828
1.23814
1.36964
1.44214
1.45308
1.47353
1.60397
1.8586
2.15572
2.53258
3.13055
3.86376
4.07556
3.53857
4.21895
0.852094
0.861216
0.893501
0.968065
1.08632
1.23412
1.37438
1.46639
1.50158
1.52045
1.59513
1.75736
1.96826
2.20724
2.45824
2.69124
2.78299
2.7499
3.5426
0.669116
0.718023
0.778986
0.866193
0.988454
1.1334
1.27409
1.37762
1.4305
1.45006
1.47762
1.54179
1.62892
1.71768
1.81485
1.96049
2.15458
2.38095
2.99008
0.523539
0.578889
0.645213
0.730329
0.839826
0.970621
1.10285
1.20873
1.27237
1.29548
1.29971
1.30527
1.318
1.34329
1.42481
1.60103
1.88814
2.18536
2.38402
0.418402
0.465011
0.522188
0.594537
0.685487
0.79316
0.905949
1.00474
1.07199
1.1011
1.10178
1.08883
1.08076
1.10561
1.21026
1.42495
1.76606
2.03108
1.65928
0.344906
0.379877
0.423635
0.479484
0.549865
0.633714
0.723806
0.807165
0.869924
0.904245
0.912488
0.906073
0.908407
0.954145
1.08112
1.31379
1.68465
1.94038
1.43483
0.293552
0.318875
0.350611
0.391376
0.443164
0.505603
0.574299
0.640812
0.695306
0.731573
0.749943
0.759052
0.780869
0.847453
0.988726
1.22685
1.60759
1.9406
1.35069
0.257177
0.275784
0.298657
0.327878
0.365135
0.41055
0.46163
0.513159
0.558597
0.594844
0.621193
0.64494
0.684373
0.765698
0.913633
1.15062
1.53498
1.97758
1.31575
0.230978
0.245345
0.262364
0.28367
0.310677
0.343789
0.381747
0.421564
0.459478
0.494062
0.525193
0.559229
0.610841
0.700672
0.849988
1.08237
1.46145
1.98179
1.32011
0.211839
0.22373
0.237188
0.253481
0.27378
0.298617
0.327489
0.358867
0.391025
0.423344
0.456679
0.496685
0.55514
0.64845
0.795114
1.01957
1.38576
1.93136
1.34314
0.197725
0.208307
0.219781
0.233129
0.249311
0.268891
0.2918
0.317377
0.345302
0.375379
0.409208
0.45192
0.513111
0.605996
0.746656
0.9591
1.30342
1.83891
1.37014
0.187268
0.197288
0.207806
0.219592
0.233425
0.249849
0.269043
0.290929
0.315668
0.343694
0.376983
0.420181
0.481205
0.5708
0.702784
0.899502
1.21417
1.71306
1.42232
0.179504
0.189424
0.19964
0.210753
0.223393
0.238051
0.255018
0.274541
0.296999
0.323242
0.355404
0.39766
0.456588
0.540962
0.662473
0.841331
1.12238
1.57586
1.52138
0.173699
0.183807
0.194124
0.205123
0.217307
0.231092
0.246801
0.264816
0.285645
0.310348
0.341063
0.381498
0.437138
0.515191
0.625531
0.786017
1.03405
1.44182
1.7696
0.169257
0.179722
0.190388
0.201619
0.213806
0.227284
0.24236
0.259423
0.279066
0.302421
0.331522
0.369621
0.421302
0.492535
0.591736
0.734324
0.952125
1.32172
2.13391
0.165662
0.176577
0.187734
0.199409
0.211887
0.225414
0.240244
0.256735
0.275499
0.297652
0.325063
0.360546
0.407926
0.472165
0.560419
0.685824
0.87558
1.20867
2.26143
0.162455
0.173852
0.185575
0.197818
0.210768
0.224576
0.239416
0.255597
0.2737
0.294768
0.320469
0.353203
0.396137
0.45337
0.530906
0.639763
0.803113
1.09846
2.203
0.159222
0.171083
0.183391
0.196268
0.209805
0.224052
0.23909
0.255154
0.272763
0.292851
0.316865
0.346814
0.385276
0.435584
0.502672
0.595685
0.73446
0.992442
2.05629
0.155607
0.167857
0.180715
0.19424
0.20843
0.223233
0.238619
0.254729
0.271992
0.291212
0.313609
0.340814
0.37487
0.418413
0.475429
0.553517
0.669949
0.89311
1.87954
0.151314
0.163812
0.177119
0.191247
0.206112
0.221555
0.237426
0.25374
0.270817
0.289312
0.310213
0.334796
0.364606
0.401652
0.449117
0.513423
0.61
0.802189
1.7033
0.146133
0.158654
0.172222
0.186826
0.202323
0.218454
0.234942
0.251638
0.268728
0.286699
0.306303
0.328476
0.354312
0.385271
0.42388
0.475719
0.555041
0.720832
1.54446
0.139964
0.152183
0.165704
0.180535
0.196516
0.213321
0.230547
0.247846
0.26523
0.282977
0.301585
0.321666
0.343932
0.369384
0.400048
0.440924
0.506235
0.652591
1.42311
0.132859
0.144341
0.157358
0.171994
0.188139
0.20547
0.223507
0.241701
0.259802
0.277787
0.295835
0.314268
0.333493
0.354196
0.377982
0.409574
0.463728
0.596656
1.32551
0.125074
0.135292
0.147192
0.160981
0.176698
0.194154
0.212926
0.23239
0.251879
0.270815
0.288888
0.306129
0.322914
0.339668
0.357643
0.381435
0.426673
0.551428
1.24952
0.1171
0.125503
0.13556
0.147621
0.161953
0.178694
0.197795
0.218889
0.240867
0.261858
0.280726
0.297324
0.312005
0.325079
0.337268
0.353435
0.391907
0.513933
1.18948
0.109664
0.11579
0.123307
0.132639
0.144274
0.15881
0.177034
0.199756
0.226115
0.251186
0.271812
0.288138
0.300735
0.309582
0.314249
0.319233
0.350034
0.480571
1.17856
0.103672
0.107277
0.111787
0.117556
0.125093
0.135277
0.149866
0.172265
0.205442
0.239558
0.263402
0.279717
0.289979
0.29333
0.28634
0.270045
0.282614
0.413763
1.20782
0.1001
0.101244
0.102688
0.104567
0.107099
0.110773
0.117002
0.130414
0.16406
0.228131
0.257498
0.274261
0.282589
0.280409
0.258822
0.207144
0.169648
0.230189
1.18493
)
;

boundaryField
{
    leftWall
    {
        lowReCorrection 0;
        blending        stepwise;
        n               2;
        type            epsilonWallFunction;
        value           nonuniform List<scalar> 
50
(
0.0111289
0.016853
0.0242802
0.0303324
0.035347
0.0395421
0.0430349
0.0458482
0.0489203
0.0493453
0.0475298
0.0437717
0.0418185
0.0616068
0.0785084
0.0853016
0.0905843
0.0968498
0.104413
0.112609
0.120882
0.127989
0.133431
0.13708
0.138969
0.13923
0.138067
0.135731
0.132501
0.128664
0.1245
0.120272
0.116213
0.112512
0.109314
0.106716
0.104783
0.103554
0.103069
0.103387
0.104614
0.106925
0.110572
0.115867
0.123109
0.132434
0.143604
0.155815
0.167573
0.176485
)
;
    }
    rightWall
    {
        lowReCorrection 0;
        blending        stepwise;
        n               2;
        type            epsilonWallFunction;
        value           nonuniform List<scalar> 
50
(
0.0756457
0.0720464
0.0921273
0.106952
0.122338
0.163986
0.437898
0.693189
0.860196
0.714953
0.48189
0.338217
0.808407
2.00261
2.29444
2.52442
2.73466
5.70119
7.91513
7.63035
6.46979
5.18428
4.21895
3.5426
2.99008
2.38402
1.65928
1.43483
1.35069
1.31575
1.32011
1.34314
1.37014
1.42232
1.52138
1.7696
2.13391
2.26143
2.203
2.05629
1.87954
1.7033
1.54446
1.42311
1.32551
1.24952
1.18948
1.17856
1.20782
1.18493
)
;
    }
    lowerWall
    {
        lowReCorrection 0;
        blending        stepwise;
        n               2;
        type            epsilonWallFunction;
        value           nonuniform List<scalar> 
62
(
0.0111289
0.0279994
0.043889
0.0587874
0.072674
0.0858906
0.0987039
0.111061
0.122784
0.133752
0.144056
0.154139
0.165052
0.179276
0.198177
0.222671
0.251502
0.279758
0.295913
0.278934
0.208488
0.104117
0.0271527
0.0271527
0.0408551
0.0641598
0.0897425
0.123911
0.178634
0.287401
0.568546
0.910726
0.595535
0.541929
0.84378
0.3341
0.386432
0.536876
0.634371
0.707177
0.764009
0.813591
0.864354
0.3341
0.395932
0.554022
0.727017
0.886804
1.03224
1.18104
1.31056
1.43313
1.55707
1.62507
1.44011
0.918557
0.553114
0.41604
0.367219
0.320573
0.223352
0.0756457
)
;
    }
    atmosphere
    {
        type            inletOutlet;
        inletValue      uniform 0.1;
        value           nonuniform List<scalar> 
46
(
0.176485
0.0952497
0.0779665
0.0703749
0.0662673
0.0639798
0.0628654
0.0626366
0.0631878
0.0645555
0.0669521
0.0708931
0.0775178
0.1
0.1
0.1
0.1
0.1
0.1
0.1
0.1
0.1
0.1
0.1
0.1
0.1
0.1
0.1
0.1
0.1
0.1
0.1
0.1
0.1
0.1
0.1
0.228131
0.257498
0.274261
0.282589
0.280409
0.258822
0.207144
0.1
0.1
1.18493
)
;
    }
    defaultFaces
    {
        type            empty;
    }
}


// ************************************************************************* //
