/*--------------------------------*- C++ -*----------------------------------*\
| =========                 |                                                 |
| \\      /  F ield         | OpenFOAM: The Open Source CFD Toolbox           |
|  \\    /   O peration     | Version:  v2012                                 |
|   \\  /    A nd           | Website:  www.openfoam.com                      |
|    \\/     M anipulation  |                                                 |
\*---------------------------------------------------------------------------*/
FoamFile
{
    version     2.0;
    format      ascii;
    class       volScalarField;
    location    "0.95";
    object      k;
}
// * * * * * * * * * * * * * * * * * * * * * * * * * * * * * * * * * * * * * //

dimensions      [0 2 -2 0 0 0 0];


internalField   nonuniform List<scalar> 
2268
(
0.00231643
0.00350039
0.00473003
0.00575137
0.00662688
0.00740872
0.00812845
0.00879324
0.00940194
0.00995634
0.0104684
0.0109662
0.0115057
0.0122081
0.0131099
0.0142389
0.0155081
0.0167043
0.0173534
0.0166294
0.0135961
0.0084811
0.00347974
0.00412223
0.00754649
0.0101093
0.0121773
0.0138547
0.0152676
0.016512
0.017634
0.0186564
0.0196042
0.0205239
0.0214948
0.0226342
0.0240948
0.0260174
0.0285679
0.0317208
0.0349668
0.0370198
0.0360145
0.0300848
0.0194826
0.00751755
0.00527006
0.0101665
0.0135208
0.0161557
0.0182447
0.0199667
0.0214544
0.0227784
0.0239788
0.0250964
0.0262001
0.0274034
0.0288729
0.0308371
0.0335553
0.037255
0.0418836
0.0466742
0.0498303
0.0489048
0.0417187
0.0275821
0.0101824
0.00612396
0.0121621
0.0161349
0.01918
0.0215436
0.0234552
0.0250821
0.0265204
0.0278283
0.0290645
0.030322
0.0317531
0.0335851
0.0361354
0.0397783
0.044816
0.0511536
0.057729
0.0622154
0.0617022
0.0538756
0.0368627
0.0127699
0.00679247
0.0137886
0.0182881
0.0216623
0.0242308
0.0262732
0.0279937
0.0295146
0.030914
0.0322705
0.0337056
0.0354184
0.0377095
0.0410032
0.0458116
0.0525167
0.0609158
0.0695104
0.0753806
0.075353
0.0672572
0.0484578
0.0158413
0.00733124
0.0151601
0.0201204
0.0237691
0.0264979
0.028637
0.0304281
0.0320206
0.0335139
0.03501
0.0366653
0.0387356
0.0416123
0.0458524
0.0521293
0.060865
0.0715905
0.082166
0.0890902
0.0893017
0.0811966
0.0620445
0.0200812
0.00776905
0.0163323
0.0217006
0.0255822
0.0284404
0.0306554
0.0325058
0.0341682
0.0357661
0.0374302
0.0393605
0.0418826
0.0454994
0.0509299
0.0590125
0.0700873
0.0831629
0.0952708
0.102504
0.10243
0.094509
0.0764306
0.0272129
0.0081173
0.017335
0.023065
0.0271458
0.0301113
0.0323898
0.0342946
0.0360302
0.037748
0.0396162
0.0418906
0.0449827
0.0495272
0.056434
0.0666679
0.0802466
0.0953523
0.108139
0.114635
0.113568
0.10586
0.0902874
0.0423871
0.0179802
0.0201246
0.0252004
0.030325
0.0347674
0.0386305
0.0424198
0.0455517
0.0485079
0.0516807
0.0538602
0.0502987
0.0371066
0.0255409
0.0205481
0.0188009
0.01721
0.0136111
0.00837394
0.0349379
0.047698
0.0506892
0.0549313
0.062326
0.0709723
0.078805
0.0852473
0.0919511
0.100592
0.109367
0.106587
0.0821093
0.0557641
0.0420888
0.036735
0.0327296
0.0262014
0.0114605
0.0435714
0.0598037
0.0632367
0.0694316
0.078155
0.0885183
0.0985468
0.106365
0.113701
0.12566
0.141989
0.145096
0.117797
0.0800095
0.0544148
0.0423644
0.0352641
0.0272672
0.0135304
0.0486953
0.0677092
0.0722226
0.079012
0.0880493
0.103533
0.117921
0.126092
0.130473
0.1436
0.168133
0.178425
0.154005
0.109901
0.0709813
0.0476852
0.0358596
0.0267138
0.0149988
0.0523262
0.0731806
0.0786522
0.0854591
0.0995573
0.128559
0.144439
0.150635
0.151816
0.165307
0.196768
0.209493
0.190158
0.145844
0.0980386
0.0608267
0.0414116
0.0288437
0.0165577
0.0550588
0.0770572
0.0836123
0.0953058
0.126358
0.148955
0.15653
0.165861
0.1751
0.192996
0.219238
0.233134
0.224988
0.18624
0.138437
0.0921649
0.0617155
0.0461909
0.0211504
0.057401
0.0805319
0.0889897
0.109802
0.139434
0.148866
0.153689
0.161696
0.176173
0.204245
0.222206
0.238796
0.242264
0.217312
0.169884
0.131875
0.101525
0.0797619
0.0406819
0.0598341
0.0845987
0.095902
0.1217
0.141347
0.146738
0.151192
0.15917
0.176736
0.211405
0.223992
0.236195
0.240902
0.230696
0.204835
0.157437
0.119414
0.0922025
0.0539469
0.00850459
0.0186749
0.0248991
0.0292445
0.0323513
0.034715
0.0366997
0.038556
0.0404904
0.0427496
0.0457061
0.0499345
0.0562795
0.0657992
0.0793727
0.0960079
0.112478
0.12424
0.127945
0.124403
0.116596
0.105799
0.0833199
0.00856899
0.019379
0.0260266
0.0306448
0.0339332
0.0364296
0.0385476
0.0406091
0.0429329
0.0459633
0.0503988
0.0572625
0.0678474
0.0830565
0.102181
0.12184
0.138
0.145688
0.141821
0.131374
0.119062
0.107508
0.0903533
0.00835025
0.0192953
0.0262006
0.0310931
0.0346234
0.0373187
0.0396247
0.0419353
0.0447346
0.0488319
0.0556151
0.0670426
0.0852142
0.11007
0.136746
0.162449
0.181697
0.181423
0.159119
0.13109
0.116678
0.110993
0.101719
0.00788354
0.018542
0.0255786
0.0307832
0.0346635
0.0376313
0.0401471
0.0427292
0.0460895
0.0517175
0.0627257
0.0835559
0.116521
0.159542
0.202119
0.241547
0.262615
0.252718
0.218868
0.167518
0.127106
0.124221
0.125019
0.00762606
0.0177994
0.0247976
0.0303554
0.0348205
0.0381394
0.0407496
0.0438154
0.0483777
0.0573167
0.0759589
0.108096
0.156078
0.220705
0.267183
0.284389
0.277429
0.25914
0.239555
0.216706
0.164635
0.136911
0.139134
0.0091991
0.0179333
0.0250397
0.0313692
0.0384542
0.047516
0.0579634
0.0735417
0.102482
0.151083
0.214713
0.262337
0.275237
0.271052
0.269829
0.262237
0.248697
0.234052
0.225842
0.226363
0.219274
0.175883
0.145103
0.0115553
0.0225018
0.0305032
0.0372595
0.0448891
0.0548474
0.0692198
0.0917404
0.127133
0.176516
0.229989
0.2656
0.271843
0.263264
0.256161
0.240933
0.229878
0.222795
0.221821
0.225969
0.237138
0.236936
0.213946
0.0123686
0.0253461
0.0332376
0.0401633
0.0488252
0.0607996
0.0785138
0.105083
0.142986
0.190422
0.236872
0.265464
0.269229
0.262532
0.258261
0.244091
0.231012
0.22693
0.230027
0.238005
0.248228
0.263755
0.263312
0.0128533
0.0263064
0.0348542
0.0425871
0.0521065
0.0651567
0.0840734
0.111373
0.148477
0.192814
0.234942
0.261098
0.266177
0.265306
0.275793
0.289164
0.269421
0.243245
0.245419
0.252347
0.26295
0.274972
0.287536
0.0133432
0.0266305
0.035607
0.0438428
0.0536096
0.0666598
0.0850456
0.110816
0.145013
0.185463
0.224619
0.25125
0.259489
0.260416
0.274254
0.304999
0.33035
0.313551
0.267109
0.268109
0.272256
0.280811
0.289049
0.0139379
0.0271806
0.0362235
0.0444888
0.0539369
0.0661777
0.0829464
0.105918
0.13602
0.171852
0.207987
0.235645
0.247875
0.250566
0.259953
0.287693
0.331744
0.367854
0.359042
0.295116
0.281936
0.281992
0.285197
0.0145976
0.0281357
0.0371604
0.0451979
0.054016
0.0650432
0.0797457
0.0994953
0.125154
0.155975
0.188225
0.215277
0.231128
0.237175
0.243415
0.261166
0.29538
0.341282
0.385386
0.396162
0.357393
0.291534
0.286031
0.0152854
0.0293186
0.0383938
0.0461981
0.0543837
0.0642019
0.0768619
0.093472
0.114764
0.140415
0.168098
0.193286
0.211203
0.220841
0.226973
0.237366
0.25805
0.29052
0.331869
0.372988
0.393818
0.382255
0.332143
0.0158887
0.0304943
0.0396988
0.0473596
0.0550473
0.06385
0.0747592
0.0886543
0.106127
0.127088
0.150185
0.172551
0.190739
0.202938
0.210677
0.218156
0.229852
0.248488
0.274387
0.305454
0.334925
0.353257
0.352991
0.0163546
0.0315095
0.0408944
0.0485093
0.055866
0.0639121
0.0734571
0.0851942
0.0995926
0.116673
0.135682
0.154897
0.172021
0.185315
0.194748
0.202095
0.209931
0.220411
0.234554
0.252034
0.271551
0.289415
0.303097
0.0166714
0.0322926
0.0418682
0.0495016
0.0566618
0.0641834
0.0727292
0.0828468
0.0949071
0.108977
0.124647
0.140909
0.15631
0.169501
0.179909
0.18801
0.195007
0.202209
0.210539
0.220334
0.231589
0.244333
0.258119
0.016843
0.0328211
0.0425659
0.0502438
0.0572918
0.0644577
0.0722919
0.0812308
0.0915705
0.103395
0.116486
0.130257
0.143814
0.156208
0.166806
0.175521
0.182767
0.189203
0.195449
0.201948
0.209067
0.21749
0.227772
0.0168805
0.033101
0.0429734
0.0506917
0.0576678
0.0645837
0.0719065
0.0799905
0.0890758
0.0992512
0.110406
0.122196
0.134073
0.145403
0.155653
0.164555
0.17214
0.178657
0.184435
0.189797
0.195099
0.200929
0.208041
0.0167999
0.0331546
0.0431031
0.0508394
0.0577524
0.0644756
0.0714146
0.0788641
0.0870237
0.0959811
0.105687
0.11594
0.126399
0.136645
0.146275
0.154999
0.162691
0.169372
0.175159
0.180217
0.184778
0.189263
0.19436
0.0166204
0.0330136
0.0429851
0.050708
0.0575491
0.0641046
0.0707354
0.0776932
0.0851485
0.0931858
0.101792
0.11085
0.120146
0.129399
0.138315
0.146638
0.154193
0.16089
0.166714
0.171706
0.175982
0.17983
0.183819
0.0163632
0.032715
0.0426602
0.050337
0.0570895
0.0634843
0.0698493
0.0764054
0.0833019
0.0906199
0.0983687
0.106482
0.114824
0.123205
0.131409
0.139227
0.146479
0.153034
0.158804
0.163753
0.167921
0.1715
0.174947
0.0160504
0.0322985
0.0421757
0.0497771
0.056423
0.0626558
0.0687786
0.0749898
0.0814231
0.0881568
0.0952138
0.102561
0.110111
0.117734
0.125271
0.132553
0.139418
0.145722
0.151351
0.156229
0.16035
0.163843
0.167072
0.0157042
0.0318052
0.041582
0.0490847
0.0556087
0.0616762
0.0675709
0.0734744
0.0795091
0.0857507
0.092231
0.098938
0.105818
0.112781
0.119708
0.126466
0.132913
0.138913
0.144346
0.149123
0.153215
0.15671
0.159898
0.015346
0.031276
0.04093
0.0483178
0.0547094
0.0606092
0.066286
0.0719084
0.0775904
0.0834055
0.0893914
0.0955509
0.101853
0.108236
0.114612
0.120875
0.126906
0.132583
0.137795
0.142451
0.146512
0.150056
0.153294
0.014996
0.0307495
0.0402684
0.0475322
0.0537858
0.0595185
0.0649864
0.0703488
0.075713
0.0811509
0.0867043
0.0923861
0.098182
0.104051
0.109929
0.115733
0.121366
0.126724
0.131707
0.136233
0.140262
0.143867
0.147198
0.0146715
0.0302606
0.0396414
0.0467785
0.0528938
0.0584626
0.0637315
0.0688522
0.0739272
0.079027
0.0841963
0.0894556
0.0948027
0.100213
0.105641
0.111023
0.116282
0.121332
0.126087
0.130475
0.134479
0.138144
0.14158
0.0143866
0.029838
0.0390864
0.0461005
0.0520813
0.0574927
0.0625734
0.0674694
0.0722798
0.0770741
0.081899
0.0867809
0.0917267
0.0967243
0.101744
0.106738
0.111648
0.116404
0.120937
0.12519
0.129164
0.132878
0.136417
0.0141516
0.0295047
0.038634
0.0455338
0.0513882
0.0566513
0.0615558
0.0662436
0.0708114
0.0753281
0.0798421
0.0843842
0.0889684
0.0935928
0.0982397
0.102877
0.107461
0.111937
0.116249
0.120379
0.12431
0.128057
0.131686
0.0139739
0.0292776
0.0383081
0.0451075
0.0508469
0.0559732
0.0607146
0.0652102
0.0695553
0.0738188
0.0780503
0.0822842
0.0865402
0.0908243
0.0951293
0.0994353
0.103711
0.107918
0.112028
0.116025
0.119896
0.123655
0.127354
0.0138584
0.0291704
0.0381287
0.0448458
0.0504848
0.0554875
0.0600793
0.0643981
0.0685386
0.0725698
0.076543
0.0804952
0.0844507
0.0884219
0.0924101
0.0964056
0.10039
0.10434
0.10825
0.112103
0.115893
0.119637
0.123378
0.0138096
0.029196
0.0381147
0.0447712
0.0503264
0.0552197
0.0596754
0.0638315
0.067783
0.0716
0.0753351
0.0790277
0.0827055
0.0863862
0.0900778
0.0937795
0.0974821
0.101189
0.10489
0.108581
0.112264
0.115961
0.119708
0.0138331
0.0293697
0.0382872
0.0449074
0.0503963
0.0551938
0.0595254
0.0635307
0.0673064
0.070924
0.0744379
0.0778891
0.0813085
0.0847172
0.088129
0.0915499
0.0949861
0.0984446
0.101925
0.105431
0.108975
0.112582
0.116292
0.013938
0.0297133
0.0386719
0.0452808
0.0507192
0.0554319
0.0596483
0.0635117
0.0671216
0.070552
0.0738588
0.0770849
0.0802627
0.0834161
0.0865629
0.0897153
0.0928898
0.0960945
0.0993376
0.102632
0.105998
0.109468
0.113085
0.0141386
0.0302553
0.039299
0.0459185
0.0513175
0.0559512
0.0600566
0.0637829
0.0672343
0.0704876
0.0736008
0.0766177
0.0795712
0.0824865
0.0853834
0.0882805
0.0911941
0.0941374
0.0971253
0.100178
0.103324
0.106602
0.110061
0.0144541
0.0310292
0.040198
0.0468419
0.0522041
0.0567572
0.06075
0.0643402
0.0676379
0.0707242
0.0736588
0.0764857
0.0792368
0.0819358
0.0846025
0.0872559
0.089912
0.0925875
0.0953025
0.0980833
0.100965
0.103993
0.107223
0.0149067
0.0320644
0.0413867
0.0480559
0.0533726
0.0578347
0.0617075
0.0651594
0.0683085
0.0712402
0.0740167
0.0766812
0.0792616
0.0817763
0.0842401
0.0866668
0.0890721
0.0914757
0.0939021
0.0963826
0.0989577
0.101678
0.104605
0.0155136
0.0333699
0.0428552
0.0495342
0.0547844
0.0591377
0.0628791
0.0661903
0.0691979
0.0719937
0.0746429
0.0771875
0.079648
0.0820297
0.0843305
0.0865557
0.0887211
0.0908507
0.0929749
0.0951303
0.0973611
0.0997213
0.102275
0.0162752
0.0349138
0.0445481
0.0512059
0.05636
0.0605827
0.0641814
0.0673518
0.0702306
0.0729181
0.075486
0.0779773
0.0804014
0.0827353
0.0849343
0.0869912
0.0889275
0.0907791
0.0925874
0.0943958
0.0962515
0.0982087
0.10033
0.0171605
0.036605
0.046352
0.052948
0.0579744
0.0620479
0.0654977
0.0685332
0.0713027
0.0739194
0.0764697
0.0790081
0.0815355
0.083973
0.0861601
0.0880802
0.089786
0.0913449
0.0928184
0.0942592
0.0957164
0.0972411
0.09889
0.0180978
0.0382843
0.0480911
0.0545865
0.0594634
0.0633807
0.0666866
0.0696018
0.0722873
0.0748757
0.0774844
0.0802084
0.0830729
0.0859168
0.0882041
0.0899848
0.0914209
0.0926472
0.0937555
0.0948074
0.0958502
0.0969274
0.0980851
0.0189729
0.0397256
0.0495335
0.0559073
0.060637
0.0644137
0.0675979
0.0704181
0.0730472
0.0756426
0.0783732
0.0814334
0.0850035
0.0889795
0.0914186
0.0929311
0.0939776
0.0947929
0.0954913
0.0961322
0.0967527
0.0973832
0.0980542
0.0196189
0.0406414
0.0504024
0.0566751
0.0613016
0.0649875
0.0680968
0.0708611
0.073461
0.0760741
0.0789239
0.0823563
0.0870079
0.0942941
0.0963672
0.0971621
0.0975859
0.0978801
0.0981197
0.0983329
0.0985346
0.0987357
0.0989475
0.0578801
0.0437426
0.0417868
0.055764
0.0740927
0.0680955
0.0643225
0.0657317
0.0884976
0.0819073
0.0788288
0.0815663
0.11859
0.113146
0.108786
0.107774
0.139048
0.136263
0.132286
0.128537
0.14636
0.144285
0.140767
0.137508
0.171416
0.154418
0.148822
0.146591
0.263332
0.263951
0.265413
0.266994
0.297214
0.302414
0.307296
0.312589
0.295843
0.299643
0.301657
0.302573
0.288679
0.29077
0.291576
0.291098
0.283228
0.283959
0.287265
0.287252
0.29261
0.295612
0.304607
0.302213
0.344094
0.341412
0.3403
0.335275
0.313397
0.321326
0.327812
0.330676
0.269992
0.279006
0.287577
0.294753
0.237289
0.244913
0.252874
0.260738
0.214873
0.220581
0.226938
0.233776
0.199247
0.203405
0.208199
0.213564
0.187487
0.190587
0.194185
0.198254
0.177915
0.180353
0.18314
0.186259
0.169672
0.171725
0.174006
0.176497
0.162334
0.164184
0.166173
0.168283
0.155688
0.157448
0.159288
0.161189
0.14962
0.151359
0.153142
0.154949
0.144065
0.145824
0.147605
0.149391
0.138983
0.140782
0.142595
0.144404
0.134335
0.136184
0.138044
0.139902
0.130081
0.131979
0.133892
0.135809
0.126169
0.128109
0.130071
0.132047
0.12254
0.124507
0.126506
0.12853
0.119131
0.121105
0.12312
0.125172
0.11589
0.11784
0.119842
0.121894
0.112779
0.114669
0.116621
0.118634
0.109793
0.111579
0.113436
0.115363
0.106959
0.108595
0.110306
0.112095
0.104347
0.105787
0.107301
0.108893
0.102063
0.103265
0.104534
0.105877
0.100241
0.101175
0.102165
0.103216
0.0990335
0.099686
0.100379
0.101116
0.0986022
0.0989774
0.0993753
0.0997986
0.0991204
0.0992383
0.0993632
0.0994957
0.0656355
0.0909985
0.10465
0.130207
0.141868
0.144636
0.15003
0.158965
0.184666
0.225969
0.228505
0.232522
0.236655
0.231184
0.214615
0.179915
0.135617
0.101499
0.062054
0.0747651
0.0978445
0.117042
0.138944
0.142757
0.148847
0.157225
0.169717
0.202605
0.237801
0.235286
0.233527
0.237091
0.235037
0.212153
0.186468
0.136652
0.0877094
0.0548338
0.0897026
0.113379
0.132222
0.143762
0.150448
0.162186
0.171739
0.186089
0.213412
0.235697
0.235562
0.23667
0.243884
0.245344
0.213896
0.178487
0.111038
0.0590273
0.0421359
0.110595
0.127323
0.142399
0.161088
0.174806
0.184727
0.186742
0.199175
0.217656
0.229811
0.233043
0.241627
0.253145
0.255228
0.211229
0.170224
0.091761
0.0449957
0.0328606
0.126077
0.139806
0.164439
0.189804
0.198307
0.195912
0.198441
0.208799
0.220617
0.226816
0.235109
0.254535
0.262713
0.260519
0.214219
0.188292
0.116935
0.0715712
0.0583333
0.136623
0.157907
0.190136
0.204231
0.20277
0.202463
0.207289
0.217974
0.222259
0.228194
0.253771
0.279815
0.271484
0.265552
0.228834
0.22191
0.194001
0.231144
0.107151
0.152947
0.190158
0.213717
0.210093
0.206039
0.209162
0.216261
0.227611
0.223574
0.234345
0.27399
0.314228
0.283031
0.283732
0.256715
0.254054
0.279662
0.326566
0.118731
0.268035
0.263527
0.249063
0.230208
0.220391
0.226641
0.228571
0.222004
0.219756
0.235033
0.268684
0.298911
0.293961
0.303686
0.28862
0.286337
0.325076
0.353544
0.12858
0.317546
0.303134
0.280741
0.260621
0.25023
0.239476
0.22995
0.222013
0.22402
0.250844
0.273149
0.277683
0.282155
0.307617
0.313791
0.304702
0.35478
0.449652
0.143677
0.30254
0.297802
0.285964
0.268694
0.254011
0.242163
0.231652
0.224586
0.234486
0.267854
0.265561
0.266407
0.269591
0.292443
0.311848
0.318716
0.382016
0.58355
0.233148
0.289225
0.284395
0.276697
0.265721
0.254081
0.242825
0.233706
0.230754
0.264676
0.264605
0.260615
0.25654
0.257628
0.272994
0.289273
0.305462
0.405324
0.646774
0.267791
0.28213
0.276467
0.27135
0.264552
0.256285
0.24752
0.245891
0.273739
0.282067
0.26447
0.258526
0.25298
0.251869
0.261451
0.27622
0.299542
0.457163
0.622739
0.255242
0.288089
0.279366
0.274891
0.271108
0.277793
0.288721
0.295567
0.292755
0.27953
0.267699
0.26223
0.258163
0.256624
0.263954
0.281572
0.340611
0.564356
0.556185
0.225891
0.322437
0.307671
0.301907
0.303487
0.312557
0.323506
0.325649
0.314233
0.294686
0.278814
0.276399
0.284864
0.280295
0.288852
0.338072
0.456417
0.557714
0.466295
0.19371
0.32936
0.322298
0.321812
0.327901
0.338459
0.34909
0.351967
0.341458
0.320679
0.302109
0.29857
0.310907
0.329133
0.355817
0.40211
0.459747
0.471331
0.385882
0.167819
0.303708
0.310372
0.319304
0.332123
0.347079
0.360389
0.366167
0.359981
0.343233
0.324074
0.313954
0.317922
0.331559
0.351872
0.376805
0.398633
0.394091
0.331782
0.14839
0.273219
0.287434
0.30265
0.319767
0.338023
0.3539
0.362983
0.3616
0.349944
0.332839
0.318274
0.312521
0.315387
0.324157
0.336603
0.349124
0.347467
0.299252
0.129941
0.245722
0.261387
0.278364
0.296738
0.315693
0.332991
0.344812
0.347805
0.341224
0.327505
0.311938
0.300288
0.295488
0.297935
0.307854
0.321141
0.323698
0.276481
0.106422
0.223342
0.237128
0.252621
0.269659
0.287462
0.304254
0.317198
0.323344
0.32108
0.311346
0.297639
0.284887
0.277821
0.279566
0.290885
0.306468
0.311111
0.256432
0.0886906
0.205766
0.216697
0.229327
0.243595
0.258924
0.273938
0.286437
0.293967
0.294823
0.289058
0.278943
0.268665
0.263344
0.266968
0.279974
0.296828
0.3036
0.246586
0.0838638
0.191975
0.200287
0.209986
0.22118
0.233552
0.246118
0.257221
0.264909
0.26766
0.265246
0.259219
0.252911
0.250935
0.257037
0.271291
0.288712
0.299177
0.252469
0.0816728
0.18097
0.187302
0.194611
0.203124
0.212739
0.222818
0.232175
0.239339
0.243064
0.24325
0.240866
0.238533
0.240011
0.248323
0.263395
0.281274
0.295493
0.267322
0.0811791
0.171975
0.176979
0.182586
0.189076
0.196487
0.20445
0.212159
0.218569
0.222787
0.22477
0.225213
0.226148
0.230475
0.240469
0.25606
0.274356
0.291278
0.278379
0.082193
0.164438
0.168644
0.173168
0.178293
0.184137
0.190513
0.196901
0.202599
0.207048
0.210213
0.212673
0.215999
0.222374
0.233468
0.249225
0.267584
0.285614
0.279993
0.0832886
0.157985
0.161783
0.165705
0.170013
0.17486
0.18017
0.185624
0.190765
0.195324
0.199248
0.203059
0.207987
0.21566
0.227276
0.242758
0.26055
0.278094
0.275325
0.0849933
0.152365
0.156023
0.15969
0.163597
0.167898
0.172582
0.177464
0.182274
0.186865
0.191258
0.19592
0.20182
0.210169
0.221798
0.236568
0.253186
0.269105
0.26676
0.0879787
0.14741
0.151102
0.154751
0.15855
0.162638
0.167031
0.171625
0.176274
0.180897
0.185579
0.190738
0.197144
0.205693
0.216941
0.230664
0.245728
0.25948
0.257895
0.0939576
0.142994
0.146831
0.150614
0.154501
0.158606
0.162948
0.167463
0.17208
0.176756
0.181614
0.187026
0.193608
0.202022
0.212621
0.225119
0.238462
0.249887
0.247777
0.107312
0.139013
0.143056
0.147066
0.151165
0.155436
0.15989
0.164477
0.16915
0.1739
0.178862
0.184365
0.190898
0.198952
0.208737
0.219925
0.231458
0.240377
0.235654
0.116564
0.135366
0.139641
0.143925
0.148307
0.152837
0.157505
0.162258
0.167052
0.171895
0.176918
0.182403
0.188739
0.196285
0.205143
0.214944
0.224554
0.230709
0.222365
0.117382
0.131951
0.136454
0.141025
0.145722
0.15056
0.155503
0.160481
0.165442
0.170392
0.175449
0.180847
0.186889
0.193826
0.201672
0.209998
0.217553
0.220789
0.208765
0.113591
0.128664
0.133367
0.13821
0.143222
0.148386
0.153636
0.158875
0.164034
0.169106
0.174184
0.179454
0.18514
0.191398
0.198162
0.204931
0.210342
0.210702
0.195457
0.107699
0.12541
0.130258
0.135329
0.14063
0.146114
0.15168
0.157204
0.162584
0.167794
0.172894
0.178018
0.183314
0.188852
0.194483
0.199642
0.202901
0.20059
0.182785
0.101108
0.122108
0.127021
0.132249
0.137783
0.143554
0.14943
0.15525
0.160875
0.166247
0.171386
0.17637
0.181272
0.186075
0.190554
0.194093
0.195266
0.190581
0.170895
0.0945835
0.118715
0.12358
0.128857
0.134536
0.140532
0.146688
0.15281
0.158708
0.164281
0.169499
0.174377
0.17891
0.182999
0.186349
0.188309
0.187513
0.180766
0.159831
0.0886242
0.115228
0.119901
0.125081
0.130771
0.136888
0.143266
0.149682
0.155888
0.161727
0.1671
0.171941
0.176166
0.179605
0.181902
0.182389
0.17977
0.171325
0.150022
0.0840017
0.111703
0.116013
0.120906
0.126416
0.13249
0.13898
0.145655
0.152222
0.158436
0.164091
0.169011
0.173035
0.175931
0.177312
0.176489
0.172288
0.162791
0.14209
0.0801658
0.108262
0.112021
0.116401
0.121478
0.127263
0.133669
0.140513
0.147507
0.154278
0.160425
0.165597
0.169538
0.172024
0.172637
0.170674
0.165256
0.155235
0.135565
0.0771681
0.105093
0.108126
0.111749
0.116091
0.121241
0.12724
0.134055
0.141519
0.149152
0.156129
0.161784
0.165789
0.167936
0.167838
0.164796
0.158182
0.147744
0.129758
0.0747387
0.102435
0.104611
0.107271
0.110565
0.114656
0.119744
0.126086
0.13393
0.142939
0.1514
0.157841
0.162011
0.163816
0.162875
0.158394
0.149981
0.139124
0.123903
0.0743196
0.100557
0.101824
0.103402
0.105411
0.108022
0.111525
0.116487
0.123974
0.134902
0.146575
0.1543
0.158704
0.160088
0.158018
0.151282
0.139399
0.127591
0.116221
0.0755311
0.0997321
0.10013
0.100632
0.101283
0.102155
0.103409
0.105486
0.109774
0.12013
0.14211
0.151917
0.156647
0.157665
0.15443
0.144869
0.127299
0.111584
0.104616
0.0747767
)
;

boundaryField
{
    leftWall
    {
        type            kqRWallFunction;
        value           nonuniform List<scalar> 
50
(
0.00231643
0.00412223
0.00527006
0.00612396
0.00679247
0.00733124
0.00776905
0.0081173
0.00850459
0.00856899
0.00835025
0.00788354
0.00762606
0.0091991
0.0115553
0.0123686
0.0128533
0.0133432
0.0139379
0.0145976
0.0152854
0.0158887
0.0163546
0.0166714
0.016843
0.0168805
0.0167999
0.0166204
0.0163632
0.0160504
0.0157042
0.015346
0.014996
0.0146715
0.0143866
0.0141516
0.0139739
0.0138584
0.0138096
0.0138331
0.013938
0.0141386
0.0144541
0.0149067
0.0155136
0.0162752
0.0171605
0.0180978
0.0189729
0.0196189
)
;
    }
    rightWall
    {
        type            kqRWallFunction;
        value           nonuniform List<scalar> 
50
(
0.00837394
0.0114605
0.0135304
0.0149988
0.0165577
0.0211504
0.0406819
0.0539469
0.062054
0.0548338
0.0421359
0.0328606
0.0583333
0.107151
0.118731
0.12858
0.143677
0.233148
0.267791
0.255242
0.225891
0.19371
0.167819
0.14839
0.129941
0.106422
0.0886906
0.0838638
0.0816728
0.0811791
0.082193
0.0832886
0.0849933
0.0879787
0.0939576
0.107312
0.116564
0.117382
0.113591
0.107699
0.101108
0.0945835
0.0886242
0.0840017
0.0801658
0.0771681
0.0747387
0.0743196
0.0755311
0.0747767
)
;
    }
    lowerWall
    {
        type            kqRWallFunction;
        value           nonuniform List<scalar> 
62
(
0.00231643
0.00350039
0.00473003
0.00575137
0.00662688
0.00740872
0.00812845
0.00879324
0.00940194
0.00995634
0.0104684
0.0109662
0.0115057
0.0122081
0.0131099
0.0142389
0.0155081
0.0167043
0.0173534
0.0166294
0.0135961
0.0084811
0.00347974
0.00347974
0.00751755
0.0101824
0.0127699
0.0158413
0.0200812
0.0272129
0.0423871
0.0578801
0.0437426
0.0417868
0.055764
0.0179802
0.0349379
0.0435714
0.0486953
0.0523262
0.0550588
0.057401
0.0598341
0.0179802
0.0201246
0.0252004
0.030325
0.0347674
0.0386305
0.0424198
0.0455517
0.0485079
0.0516807
0.0538602
0.0502987
0.0371066
0.0255409
0.0205481
0.0188009
0.01721
0.0136111
0.00837394
)
;
    }
    atmosphere
    {
        type            inletOutlet;
        inletValue      uniform 0.1;
        value           nonuniform List<scalar> 
46
(
0.0196189
0.0406414
0.0504024
0.0566751
0.0613016
0.0649875
0.0680968
0.0708611
0.073461
0.0760741
0.0789239
0.0823563
0.0870079
0.1
0.1
0.1
0.1
0.1
0.1
0.1
0.1
0.1
0.1
0.1
0.1
0.1
0.1
0.1
0.1
0.1
0.1
0.1
0.1
0.1
0.1
0.1
0.14211
0.151917
0.156647
0.157665
0.15443
0.144869
0.127299
0.1
0.1
0.0747767
)
;
    }
    defaultFaces
    {
        type            empty;
    }
}


// ************************************************************************* //
