/*--------------------------------*- C++ -*----------------------------------*\
| =========                 |                                                 |
| \\      /  F ield         | OpenFOAM: The Open Source CFD Toolbox           |
|  \\    /   O peration     | Version:  v2012                                 |
|   \\  /    A nd           | Website:  www.openfoam.com                      |
|    \\/     M anipulation  |                                                 |
\*---------------------------------------------------------------------------*/
FoamFile
{
    version     2.0;
    format      ascii;
    class       volScalarField;
    location    "0.95";
    object      nut;
}
// * * * * * * * * * * * * * * * * * * * * * * * * * * * * * * * * * * * * * //

dimensions      [0 2 -1 0 0 0 0];


internalField   nonuniform List<scalar> 
2268
(
4.33938e-05
3.93846e-05
4.58791e-05
5.06409e-05
5.43854e-05
5.75153e-05
6.02453e-05
6.2658e-05
6.47943e-05
6.67026e-05
6.84649e-05
7.02167e-05
7.21851e-05
7.48192e-05
7.80526e-05
8.19464e-05
8.60639e-05
8.97672e-05
9.15902e-05
8.92264e-05
7.97981e-05
6.21765e-05
4.01349e-05
9.07468e-05
0.000207196
0.000279607
0.000332582
0.000370253
0.000399406
0.000424636
0.000448143
0.000470998
0.000494178
0.000519039
0.000547276
0.000580187
0.000616204
0.000655415
0.000702498
0.000755161
0.00080212
0.000819966
0.000781596
0.000661044
0.000448773
0.000124494
0.000102949
0.00036472
0.000514074
0.000622206
0.000702535
0.000767097
0.000823437
0.000875193
0.000924114
0.000971576
0.00101908
0.00106789
0.00111812
0.00116803
0.00121975
0.00127678
0.00133572
0.00137981
0.0013765
0.00128682
0.00107295
0.000704265
0.000145439
0.000111276
0.000498335
0.000718322
0.000875022
0.000994127
0.00109118
0.0011754
0.00125124
0.00132066
0.00138471
0.0014439
0.00149778
0.00154469
0.00158327
0.00161906
0.00165983
0.00170664
0.00174184
0.00172604
0.00161108
0.00135194
0.000889844
0.000163538
0.000117475
0.000610862
0.000894777
0.00109391
0.00124682
0.00137184
0.00147934
0.00157426
0.00165841
0.00173197
0.00179368
0.00184074
0.00187032
0.00188393
0.00189529
0.00192158
0.00196777
0.0020102
0.00199816
0.00187512
0.00159286
0.00107427
0.000182269
0.000122331
0.000705986
0.00104743
0.00128383
0.00146597
0.00161471
0.00174127
0.00185087
0.00194491
0.0020222
0.00207912
0.00211063
0.00211473
0.0021002
0.00209335
0.00212055
0.00218398
0.00224646
0.00224391
0.002116
0.00181782
0.0012675
0.00020317
0.000126228
0.000786924
0.00117963
0.00144876
0.00165614
0.00182488
0.00196688
0.00208746
0.00218737
0.00226356
0.00230976
0.00231963
0.0022955
0.00225824
0.00224782
0.0022941
0.00238721
0.00247174
0.0024726
0.00233253
0.00201874
0.0014508
0.000231901
0.000129343
0.000856411
0.00129411
0.00159186
0.00182098
0.00200647
0.00216076
0.00228917
0.00239144
0.00246227
0.00249277
0.00247747
0.00242767
0.00237963
0.00238342
0.00246283
0.00258834
0.00268689
0.00267732
0.00251163
0.00217905
0.00161221
0.000284409
8.70873e-05
9.20616e-05
0.000103164
0.000113841
0.000122676
0.000130114
0.000137124
0.000142494
0.000147769
0.00015438
0.00016066
0.00015811
0.000134908
0.000106146
9.13379e-05
8.66313e-05
8.3153e-05
7.46515e-05
8.34292e-05
0.000284292
0.000394104
0.000430697
0.000518078
0.000655096
0.000805301
0.000912967
0.000992658
0.0010831
0.00120968
0.00136016
0.00140051
0.00118284
0.000844375
0.000613065
0.0005148
0.000453742
0.000371208
0.000164072
0.000318252
0.000615001
0.000735264
0.000925633
0.00113793
0.00133796
0.00149483
0.00163548
0.00179365
0.00201769
0.00230161
0.00239694
0.00206545
0.00152358
0.00104701
0.000774169
0.000609063
0.000440807
0.000178844
0.000336413
0.000801575
0.000995626
0.00121033
0.00141471
0.00166136
0.00185658
0.00202152
0.00220346
0.00249086
0.00289234
0.00304169
0.00268364
0.00207089
0.00142416
0.000948469
0.000660778
0.000434184
0.000189308
0.00034846
0.000951842
0.00118786
0.00137757
0.00164055
0.00208269
0.00228692
0.00238373
0.00257189
0.00296796
0.00351259
0.00359645
0.00319646
0.00253981
0.00180363
0.00115922
0.000735786
0.000448914
0.000201688
0.000357107
0.00106918
0.00132893
0.00158252
0.00217659
0.00258545
0.00272825
0.00278729
0.0030917
0.00370428
0.00428322
0.00421294
0.00381312
0.00301839
0.00223787
0.00153678
0.00098609
0.000663836
0.000245513
0.000364481
0.00116768
0.00146724
0.0018995
0.00248434
0.00270688
0.00284948
0.00300912
0.0033457
0.00412329
0.0045403
0.00458812
0.0044201
0.00375271
0.00274909
0.00214941
0.00161167
0.00116496
0.000340152
0.000372776
0.0012605
0.00162118
0.00215339
0.00256617
0.00275946
0.0029096
0.00312219
0.00349338
0.00434745
0.00468184
0.00476556
0.00467367
0.00432923
0.00373162
0.00275667
0.00198345
0.00141403
0.000377853
0.000133064
0.00095158
0.00144985
0.00178664
0.00204517
0.00225259
0.00242182
0.00255781
0.00265818
0.00271343
0.00271217
0.00265698
0.00258205
0.00254509
0.00259449
0.00272632
0.00287948
0.0029687
0.00291466
0.00268869
0.00232511
0.00186592
0.00109252
0.000133923
0.00101156
0.00155853
0.00193067
0.00221676
0.0024445
0.00262668
0.00276692
0.00285788
0.00288253
0.00283207
0.00274104
0.00269073
0.00274793
0.00290776
0.00310695
0.00327474
0.00332198
0.00314627
0.00274531
0.00224189
0.00182679
0.00134033
0.000132031
0.00102462
0.00159901
0.00199551
0.00230151
0.00254372
0.0027342
0.00287316
0.00294349
0.00291779
0.00280721
0.00271795
0.00278013
0.00301899
0.00333467
0.00365257
0.00391042
0.00390694
0.00341553
0.00247214
0.00194843
0.0017351
0.00144711
0.000127788
0.000991747
0.00157597
0.00198883
0.00231133
0.0025665
0.00276346
0.00289606
0.00292937
0.0028224
0.00264991
0.00265237
0.00296762
0.00352096
0.00414735
0.00487276
0.00547471
0.00559847
0.00487145
0.00331
0.00195039
0.00181815
0.0017343
0.000125163
0.000932456
0.00152604
0.00195841
0.00230346
0.00257172
0.00276448
0.00285112
0.0027527
0.00248698
0.00236675
0.0026324
0.00329857
0.00443393
0.00549718
0.00609821
0.00635368
0.00637298
0.00613519
0.00505106
0.00295594
0.00196719
0.00195293
0.000123624
0.000934535
0.00153512
0.00199765
0.00244436
0.00289642
0.00311495
0.0031235
0.00322562
0.00368195
0.00446617
0.00516805
0.00558631
0.0060103
0.00641592
0.00657576
0.00663684
0.00661494
0.00652418
0.00632099
0.00515151
0.00311378
0.00206642
0.00015307
0.00114013
0.00186571
0.00242633
0.00294803
0.00340731
0.00370639
0.00389643
0.00417066
0.00464847
0.00524785
0.0057441
0.00603517
0.00624873
0.00653026
0.00673724
0.00675997
0.00673696
0.00672277
0.00671768
0.00666231
0.00557553
0.00419841
0.000161409
0.00120248
0.00203123
0.00269481
0.00331639
0.00386365
0.00427466
0.00459627
0.00495281
0.00539677
0.00584666
0.00616972
0.00635146
0.00653214
0.00676053
0.00682958
0.00685277
0.00685831
0.00691951
0.00702648
0.00713718
0.00715978
0.00628454
0.000164142
0.00119687
0.00211014
0.00288334
0.00361063
0.00425598
0.00476197
0.00515958
0.00554227
0.0059462
0.00630559
0.00652801
0.00663468
0.00679778
0.00709361
0.00731517
0.00717139
0.00702182
0.00715433
0.00730329
0.00747278
0.00762554
0.00772493
0.000165449
0.00117154
0.00214132
0.00299718
0.00381009
0.00454407
0.00513159
0.00557967
0.00596543
0.00633278
0.00664176
0.00682409
0.00689498
0.00701109
0.00729409
0.0076179
0.00776249
0.0076552
0.00737326
0.00755317
0.00768849
0.00782898
0.00792884
0.000167448
0.00116095
0.00216742
0.00307519
0.00394399
0.0047452
0.00540264
0.00589385
0.00627738
0.00661053
0.00688524
0.007055
0.007126
0.00720402
0.00740762
0.00771833
0.00799873
0.0081154
0.00802949
0.00771933
0.00782864
0.00793494
0.00800674
0.000170306
0.00117347
0.00221389
0.0031547
0.00405312
0.00489574
0.00560883
0.00614161
0.00652554
0.00682534
0.00706719
0.0072345
0.00732689
0.00739787
0.00752717
0.0077394
0.00799268
0.00823508
0.00835501
0.00831888
0.00819873
0.00796166
0.00805116
0.000173954
0.0012015
0.00228288
0.00325244
0.00416617
0.00502756
0.00577717
0.00635067
0.00674902
0.0070297
0.0072441
0.007407
0.00752106
0.00760608
0.0076996
0.00782458
0.00797597
0.00815255
0.00833378
0.0084559
0.00846427
0.00831246
0.00808042
0.00017752
0.0012376
0.00236482
0.00336512
0.0042911
0.00516066
0.00593485
0.00655031
0.0069826
0.00726886
0.00746911
0.00762382
0.00774894
0.00785153
0.00794064
0.00802318
0.00809862
0.00817469
0.00826689
0.00836408
0.00842946
0.0084661
0.00850214
0.000180412
0.00127484
0.00245048
0.00348495
0.00442563
0.00530053
0.00609116
0.00674647
0.0072288
0.00755022
0.00776179
0.00791644
0.00804589
0.00816027
0.00825792
0.00833337
0.00838134
0.00840475
0.00841948
0.00844131
0.0084628
0.0085073
0.00863303
0.00018248
0.00130888
0.0025322
0.00360286
0.00456178
0.00544302
0.00624482
0.00693333
0.00747079
0.0078499
0.00810252
0.0082784
0.00841848
0.00854236
0.00865084
0.00873566
0.00878839
0.00880768
0.00880363
0.0087949
0.00879645
0.00881715
0.00891678
0.000183723
0.00133743
0.00260467
0.00371117
0.00469073
0.00558029
0.00639015
0.00710301
0.00768947
0.00813339
0.00844784
0.00866906
0.00883675
0.00897732
0.00909928
0.00919883
0.00926889
0.00930658
0.00931768
0.00931662
0.00932079
0.00933602
0.00939833
0.000184196
0.00135959
0.0026648
0.00380443
0.00480506
0.0057044
0.00652054
0.00724941
0.00787273
0.00837435
0.0087553
0.00903656
0.00924896
0.00941919
0.00956174
0.00967945
0.00976957
0.00983018
0.00986454
0.00988235
0.00989685
0.00991508
0.00995517
0.000183978
0.00137532
0.00271116
0.00387931
0.00489955
0.00580893
0.00663015
0.0073685
0.0080159
0.0085608
0.00899936
0.00934122
0.00960644
0.00981683
0.00998836
0.0101287
0.0102396
0.0103215
0.0103767
0.0104118
0.0104359
0.0104563
0.0104837
0.000183167
0.00138505
0.00274352
0.00393429
0.00497116
0.00588964
0.00671478
0.0074579
0.00811882
0.0086917
0.00917254
0.0095648
0.00987988
0.0101331
0.0103383
0.0105047
0.0106372
0.0107383
0.0108107
0.0108589
0.0108899
0.0109104
0.0109288
0.00018187
0.0013894
0.00276245
0.00396928
0.00501875
0.00594441
0.0067721
0.00751666
0.00818333
0.00877135
0.00927871
0.00970658
0.010061
0.0103517
0.0105891
0.0107817
0.0109354
0.0110539
0.0111404
0.0111989
0.0112349
0.0112547
0.0112663
0.000180202
0.00138911
0.00276906
0.00398524
0.00504276
0.00597303
0.00680163
0.00754515
0.0082122
0.00880581
0.00932649
0.00977529
0.0101557
0.0104738
0.0107367
0.0109513
0.0111232
0.0112563
0.0113542
0.0114207
0.0114606
0.01148
0.0114866
0.00017828
0.00138503
0.00276494
0.00398404
0.00504493
0.00597689
0.00680457
0.00754506
0.00820883
0.00880139
0.00932542
0.00978285
0.0101764
0.0105101
0.010789
0.0110184
0.0112028
0.0113461
0.0114519
0.0115237
0.0115661
0.011585
0.0115884
0.000176226
0.00137815
0.00275207
0.00396827
0.00502806
0.00595871
0.00678356
0.00751936
0.0081773
0.00876432
0.00928469
0.00974136
0.0101372
0.0104755
0.0107603
0.0109955
0.0111851
0.0113327
0.0114415
0.0115151
0.011558
0.0115758
0.0115768
0.000174157
0.00136962
0.00273279
0.00394116
0.00499584
0.00592236
0.00674249
0.00747215
0.00812247
0.008701
0.00921293
0.00966212
0.0100519
0.0103857
0.010667
0.0108993
0.0110863
0.0112313
0.0113374
0.0114085
0.0114488
0.0114644
0.0114633
0.000172184
0.0013606
0.00270966
0.00390635
0.00495261
0.00587253
0.00668625
0.00740856
0.00804997
0.00861808
0.00911849
0.00955565
0.00993346
0.0102556
0.0105258
0.0107476
0.0109247
0.0110604
0.0111582
0.011222
0.0112566
0.0112684
0.0112646
0.000170406
0.00135223
0.00268529
0.0038677
0.00490313
0.00581451
0.00662047
0.00733443
0.00796608
0.0085226
0.00900962
0.00943191
0.00979379
0.0100994
0.0103528
0.0105581
0.0107193
0.01084
0.0109244
0.0109767
0.0110028
0.0110087
0.0110016
0.000168898
0.00134555
0.00266223
0.00382914
0.00485232
0.00575392
0.00655113
0.00725608
0.00787743
0.00842174
0.00889442
0.0093003
0.00964398
0.00993006
0.0101631
0.0103478
0.0104887
0.0105903
0.0106572
0.0106953
0.0107103
0.0107085
0.0106968
0.000167721
0.00134144
0.00264287
0.00379444
0.00480503
0.00569631
0.00648429
0.00717985
0.00779065
0.00832255
0.0087806
0.00916951
0.00949409
0.00975926
0.00997017
0.0101321
0.0102503
0.0103302
0.0103778
0.0103994
0.0104013
0.0103901
0.0103724
0.000166918
0.00134069
0.00262941
0.00376713
0.00476581
0.00564697
0.00642564
0.00711169
0.00771189
0.00823147
0.00867504
0.00904718
0.00935276
0.00959699
0.00978548
0.00992414
0.0100191
0.0100766
0.010104
0.0101079
0.0100954
0.0100733
0.0100483
0.000166523
0.00134409
0.00262393
0.00375045
0.00473878
0.00561056
0.00638018
0.00705675
0.00764639
0.00815383
0.00858336
0.00893941
0.00922685
0.00945114
0.00961823
0.00973458
0.00980698
0.00984313
0.00985043
0.0098364
0.00980853
0.00977423
0.00974041
0.000166577
0.00135241
0.00262832
0.00374721
0.00472736
0.00559084
0.00635177
0.00701888
0.00759795
0.00809342
0.00850942
0.00885032
0.00912102
0.00932711
0.00947483
0.00957101
0.00962323
0.00963951
0.00962781
0.00959619
0.00955272
0.0095052
0.00946082
0.00016713
0.00136649
0.00264426
0.00375958
0.00473396
0.00559025
0.00634278
0.00700027
0.00756852
0.00805202
0.00845495
0.00878175
0.0090374
0.00922757
0.00935866
0.00943773
0.00947273
0.00947171
0.00944302
0.00939509
0.00933635
0.00927493
0.00921835
0.000168258
0.00138704
0.00267276
0.00378856
0.00475941
0.00560943
0.00635357
0.007001
0.00755792
0.00802919
0.00841934
0.00873304
0.00897545
0.00915229
0.00926997
0.00933566
0.00935708
0.00934228
0.00929962
0.00923763
0.00916484
0.00908956
0.00901953
0.000170052
0.00141426
0.00271344
0.00383319
0.00480232
0.00564667
0.00638219
0.00701889
0.00756373
0.00802231
0.00839975
0.00870123
0.00893216
0.00909835
0.00920611
0.00926244
0.00927466
0.00925049
0.00919799
0.00912542
0.0090411
0.00895321
0.00886952
0.000172602
0.0014472
0.00276367
0.00388981
0.00485857
0.00569771
0.00642438
0.00704967
0.00758164
0.00802695
0.00839164
0.00868157
0.00890259
0.00906063
0.00916188
0.00921301
0.00922082
0.00919243
0.00913528
0.009057
0.00896533
0.00886794
0.00877224
0.000175945
0.00148312
0.002818
0.00395189
0.0049215
0.00575613
0.00647406
0.00708762
0.00760622
0.00803785
0.00838973
0.00866862
0.00888091
0.00903275
0.00913043
0.00918021
0.00918831
0.0091611
0.0091052
0.00902734
0.00893432
0.00883286
0.00872949
0.00018001
0.00151749
0.00286873
0.00401099
0.00498297
0.00581444
0.00652449
0.00712671
0.00763203
0.00805002
0.00838929
0.00865756
0.00886184
0.00900861
0.00910457
0.00915577
0.00916793
0.00914673
0.00909794
0.00902728
0.00894035
0.00884253
0.00873902
0.00018456
0.00154499
0.00290799
0.00405893
0.00503526
0.00586567
0.00656953
0.00716166
0.00765471
0.00805992
0.00838731
0.00864552
0.00884201
0.00898372
0.00907824
0.00913178
0.00914986
0.00913783
0.00910081
0.00904358
0.00897048
0.0088854
0.00879184
0.000189185
0.00156128
0.00293052
0.00409038
0.00507313
0.00590482
0.00660472
0.00718888
0.00767163
0.00806592
0.00838302
0.00863219
0.00882101
0.00895681
0.00904845
0.00910256
0.00912548
0.00912296
0.00909988
0.00906024
0.00900722
0.0089433
0.00887039
0.000193332
0.00156497
0.00293629
0.00410493
0.00509512
0.00592973
0.00662784
0.00720663
0.00768199
0.00806824
0.00837757
0.00861948
0.0088017
0.00893308
0.00901834
0.00906691
0.00908943
0.00909317
0.00908284
0.00906156
0.00903142
0.00899379
0.0089494
0.000196284
0.00156069
0.00293249
0.00410779
0.00510372
0.00594099
0.00663872
0.00721491
0.00768639
0.00806832
0.00837327
0.00861057
0.00878939
0.00893882
0.00900233
0.00902919
0.00904071
0.00904405
0.00904207
0.00903618
0.00902718
0.00901551
0.00900134
0.000331065
0.000289164
0.000289987
0.000331682
0.000854566
0.00067877
0.000602436
0.000621414
0.00110595
0.000960633
0.000901951
0.00095052
0.00153404
0.00142456
0.00136416
0.00138265
0.0018941
0.00183917
0.0017948
0.0017886
0.00206959
0.00204685
0.00202449
0.00202758
0.00271796
0.0022929
0.0022162
0.002237
0.0056249
0.00530312
0.00508343
0.00494978
0.00763757
0.00747321
0.00731763
0.0071697
0.0079398
0.00793003
0.00789896
0.00785895
0.00803567
0.00804231
0.00803134
0.00800987
0.00805079
0.0080446
0.00804554
0.00804893
0.0080617
0.00813622
0.00826628
0.00825617
0.00861643
0.0087244
0.00883189
0.00890349
0.00882019
0.00896225
0.00910472
0.00923978
0.00906952
0.00919047
0.00932777
0.00947767
0.00950221
0.00958623
0.00968984
0.00981158
0.0100217
0.0100736
0.01014
0.0102208
0.0105258
0.0105556
0.0105934
0.0106389
0.0109541
0.0109691
0.0109872
0.0110077
0.0112795
0.011284
0.0112887
0.0112926
0.0114911
0.0114882
0.0114835
0.0114763
0.0115868
0.0115787
0.0115677
0.0115531
0.0115712
0.0115597
0.0115446
0.0115254
0.0114551
0.0114415
0.011424
0.0114024
0.0112545
0.0112398
0.0112214
0.011199
0.0109899
0.0109747
0.0109563
0.0109345
0.0106834
0.010668
0.0106502
0.0106299
0.010357
0.0103413
0.0103242
0.0103058
0.0100299
0.0100136
0.00999697
0.00998021
0.00971787
0.00970006
0.00968317
0.00966731
0.00943248
0.00941216
0.00939377
0.00937751
0.00918235
0.00915815
0.00913673
0.00911835
0.00897406
0.00894458
0.00891842
0.00889594
0.00881332
0.00877743
0.00874499
0.00871647
0.00870533
0.00866265
0.00862306
0.00858712
0.00865409
0.00860559
0.00855931
0.00851583
0.0086602
0.00860881
0.00855834
0.00850932
0.0087176
0.0086684
0.00861871
0.0085689
0.00881029
0.00876974
0.00872772
0.00868438
0.00891159
0.00888564
0.00885813
0.00882903
0.00898895
0.00898032
0.008971
0.00896095
0.000583103
0.00140054
0.00180382
0.00234325
0.00266348
0.00283152
0.00299659
0.00322199
0.00369355
0.00458936
0.00483357
0.00490057
0.00484787
0.00465318
0.00423315
0.00319087
0.00219439
0.00155397
0.000402889
0.000836845
0.00152275
0.00202488
0.00253175
0.00279447
0.00298597
0.00320417
0.00347892
0.00404863
0.00477128
0.00496845
0.00499199
0.00494548
0.00477148
0.00401921
0.00290586
0.00197179
0.00126085
0.000378496
0.00112598
0.00176224
0.00230142
0.00267678
0.00291392
0.0032171
0.00348967
0.00378756
0.00428887
0.00480831
0.00502342
0.00503139
0.00496703
0.00477317
0.00378041
0.00252027
0.00146973
0.000764949
0.000331588
0.00150156
0.00203663
0.00248805
0.00285823
0.00326883
0.00366575
0.00377223
0.0040159
0.0044185
0.00485006
0.00504683
0.00502966
0.00495075
0.00473902
0.00349108
0.00223228
0.00108995
0.000481695
0.000287342
0.00184769
0.00227818
0.00276085
0.00338962
0.00381257
0.00389101
0.00395981
0.00415117
0.00450936
0.00489276
0.00506033
0.00493587
0.00489358
0.00452901
0.00330789
0.00236234
0.00121578
0.000519239
0.000378831
0.00208792
0.00258303
0.00344375
0.00390473
0.00400564
0.00403215
0.00408198
0.00429894
0.00484535
0.00504279
0.00518144
0.00491285
0.00477925
0.00425502
0.00332576
0.00255144
0.00154774
0.00130805
0.000515991
0.00244879
0.00342065
0.00415803
0.00420016
0.00417542
0.00422864
0.00450561
0.00538069
0.00593238
0.00596079
0.00566353
0.00507648
0.00442331
0.00416288
0.0033353
0.00246104
0.00180826
0.001788
0.000552959
0.00487176
0.0049727
0.0049127
0.00473464
0.00474216
0.00532664
0.00588984
0.00621565
0.00625008
0.00617114
0.00569679
0.00488709
0.00446022
0.00425085
0.00346934
0.00235706
0.00204695
0.0019704
0.000589425
0.00704545
0.00658852
0.00614078
0.00614369
0.00649095
0.00660587
0.00661164
0.00655815
0.0064589
0.00626319
0.00529599
0.00471549
0.00458173
0.00446448
0.00381995
0.00262372
0.00232208
0.00239121
0.000679378
0.00778908
0.00758441
0.00730512
0.00718256
0.00710422
0.00701132
0.00687606
0.00671692
0.00656431
0.0059599
0.00489742
0.00468224
0.00455068
0.00442888
0.00412055
0.00323819
0.00265216
0.00315796
0.000858107
0.00796209
0.00783225
0.00766195
0.00750394
0.00733692
0.00715931
0.00697437
0.00672879
0.00621459
0.00523691
0.00471266
0.0045821
0.00443485
0.00429725
0.00406545
0.00364837
0.00307806
0.00362765
0.000815408
0.0080039
0.00790262
0.00777142
0.00762385
0.00742433
0.00717675
0.00687245
0.00645164
0.00579981
0.00517717
0.00464178
0.00443169
0.0042872
0.00416147
0.0039833
0.00368265
0.0035258
0.00384426
0.000768429
0.00810187
0.0079915
0.00791142
0.00783942
0.0078603
0.00758544
0.00702854
0.00632843
0.00566321
0.00514164
0.0047134
0.0043314
0.00415736
0.00405355
0.00392165
0.00367294
0.00413548
0.00394068
0.00070982
0.00897092
0.0090416
0.00903737
0.00891309
0.00865162
0.00818728
0.00749485
0.00665806
0.00586509
0.0052139
0.00469359
0.00436264
0.00407968
0.00390129
0.00390584
0.00431687
0.00465893
0.00390965
0.000651413
0.00945704
0.0096955
0.00979677
0.00970321
0.00938732
0.00885827
0.0081403
0.00727626
0.00636933
0.00557458
0.00500195
0.00468079
0.00452266
0.00449918
0.00464849
0.00492346
0.00490578
0.00378726
0.000600784
0.00974243
0.0100669
0.0102697
0.010255
0.00998026
0.00947169
0.00878001
0.00795337
0.0070611
0.00621669
0.0055613
0.00517634
0.0050267
0.00504849
0.0051982
0.00531418
0.00502253
0.00360273
0.000559411
0.0100407
0.0103557
0.0105826
0.0106242
0.0104035
0.00994539
0.00930708
0.00854218
0.0077046
0.00687585
0.00616994
0.00570134
0.0054958
0.00550569
0.00561872
0.0055955
0.00504321
0.00338507
0.000508217
0.0103796
0.0106222
0.0108085
0.010851
0.0106803
0.0102815
0.00970262
0.00900712
0.00823583
0.00745155
0.00673803
0.00621752
0.00596221
0.00594722
0.00598652
0.00579744
0.00499444
0.00314812
0.000427558
0.0107298
0.0108829
0.010999
0.0110076
0.0108493
0.010504
0.00999538
0.00936518
0.00865521
0.00792326
0.0072365
0.00670853
0.0064275
0.00636226
0.00629223
0.00593216
0.00493251
0.00291382
0.000426656
0.0110481
0.0111251
0.0111727
0.0111379
0.0109732
0.0106574
0.0102018
0.00963557
0.00899255
0.00831624
0.00767445
0.00716971
0.00687082
0.00672276
0.00652536
0.00603568
0.00492421
0.00282028
0.000441153
0.0112992
0.0113221
0.0113187
0.0112497
0.0110776
0.0107825
0.0103686
0.00985613
0.0092733
0.00865529
0.00806397
0.00758412
0.00725751
0.00701646
0.00669942
0.00611478
0.00501099
0.00295613
0.000444468
0.0114611
0.0114488
0.0114132
0.0113254
0.0111553
0.0108837
0.0105095
0.0100465
0.00951884
0.0089525
0.00840554
0.00793999
0.00757549
0.00724799
0.00683417
0.00618826
0.00511958
0.0032522
0.000450772
0.0115239
0.0114897
0.011436
0.0113423
0.0111841
0.0109427
0.0106118
0.010199
0.00972203
0.00920322
0.0086918
0.00823076
0.00782638
0.00742753
0.00694244
0.00625888
0.00522486
0.00351932
0.000460577
0.0114878
0.011441
0.0113785
0.0112867
0.0111462
0.010939
0.0106547
0.0102939
0.0098669
0.00939439
0.00891363
0.00845409
0.00801696
0.00756521
0.00703069
0.00632042
0.00529802
0.0036532
0.000464827
0.0113608
0.0113084
0.011244
0.0111587
0.0110379
0.0108651
0.0106274
0.0103196
0.00994384
0.00951829
0.00906864
0.00861496
0.00815774
0.00767149
0.00710344
0.0063703
0.00533999
0.00371
0.000474513
0.0111571
0.011105
0.0110443
0.0109692
0.010869
0.010729
0.0105352
0.0102779
0.00995555
0.00957873
0.00916386
0.00872442
0.0082613
0.00775667
0.00716692
0.00641386
0.00536789
0.00373863
0.000489779
0.0108949
0.010848
0.010796
0.010735
0.0106565
0.0105479
0.0103951
0.0101862
0.00991635
0.00958897
0.00921285
0.00879623
0.0083398
0.00782992
0.00722827
0.00645931
0.005399
0.00379848
0.000522237
0.0105945
0.0105564
0.0105171
0.0104735
0.0104185
0.0103408
0.0102267
0.0100637
0.0098439
0.00956514
0.00923021
0.00884293
0.00840272
0.00789746
0.00729151
0.00651104
0.00543487
0.00383223
0.000585685
0.0102756
0.0102483
0.0102242
0.0102003
0.0101702
0.0101232
0.010046
0.00992605
0.00975294
0.0095207
0.00922753
0.00887339
0.00845564
0.00796168
0.00735639
0.00656598
0.0054618
0.0037814
0.000573057
0.00995494
0.00993877
0.0099305
0.00992707
0.00992195
0.00990489
0.00986287
0.00978277
0.0096527
0.00946405
0.00921165
0.00889214
0.00850029
0.00802163
0.00741962
0.00661714
0.00547113
0.00368186
0.000548356
0.00964577
0.00963913
0.00964536
0.00966109
0.00967965
0.00969075
0.00968138
0.00963777
0.00954701
0.00939866
0.00918503
0.00889995
0.00853533
0.00807384
0.00747576
0.00665812
0.00546289
0.00357086
0.000527125
0.00935742
0.00935698
0.00937438
0.00940611
0.0094453
0.00948152
0.00950154
0.00949085
0.00943569
0.00932424
0.00914688
0.00889498
0.00855747
0.00811356
0.0075192
0.00668464
0.00544015
0.00346449
0.00050767
0.00909652
0.00909734
0.00912078
0.00916347
0.00921858
0.00927558
0.00932098
0.00933939
0.00931617
0.00923832
0.00909453
0.00887395
0.00856256
0.00813585
0.00754499
0.00669389
0.00540528
0.00336682
0.000489507
0.0088686
0.00886441
0.00888706
0.00893387
0.00899848
0.00907056
0.00913643
0.00917978
0.00918492
0.00913754
0.00902468
0.0088333
0.0085466
0.00813637
0.0075492
0.00668374
0.00535884
0.00327662
0.000472698
0.00867971
0.00866336
0.00867701
0.00871931
0.00878512
0.00886488
0.00894512
0.00900872
0.00903865
0.00901887
0.00893445
0.00877016
0.00850656
0.00811207
0.00752911
0.00665203
0.00529846
0.00318958
0.000457689
0.00853769
0.00850204
0.00849761
0.00852516
0.00858171
0.00865954
0.00874623
0.00882445
0.00887539
0.00888061
0.00882248
0.00868329
0.00844124
0.00806196
0.0074839
0.00659649
0.00521836
0.00310394
0.000446252
0.00845232
0.00839197
0.00836083
0.00836244
0.00839713
0.00846052
0.00854281
0.00862821
0.00869582
0.00872366
0.00869006
0.00857451
0.00835302
0.00798871
0.00741662
0.00652258
0.00514327
0.00304541
0.000436354
0.00843382
0.00834779
0.00828454
0.00825021
0.00824926
0.00828249
0.00834538
0.0084266
0.00850472
0.00855293
0.00854317
0.00845031
0.00824768
0.00789691
0.00733044
0.00644376
0.00508307
0.0029995
0.000428919
0.00848851
0.00838389
0.00829088
0.00821656
0.00816874
0.00815424
0.00817692
0.00823473
0.00831231
0.00837803
0.00839139
0.00832001
0.00813518
0.00779887
0.00724703
0.00637153
0.0050128
0.00294854
0.000422646
0.00861142
0.00850601
0.00839891
0.00829473
0.00820063
0.00812598
0.00808206
0.00808158
0.0081323
0.00821296
0.0082492
0.0081985
0.00803101
0.00771216
0.0071853
0.00634168
0.00497667
0.00287509
0.000421791
0.0087782
0.00869832
0.00860806
0.00850682
0.00839523
0.00827491
0.00814877
0.00802979
0.00797246
0.00807146
0.00813492
0.00810395
0.00795413
0.00766128
0.00719337
0.00647627
0.0051843
0.00293806
0.000425101
0.00894286
0.00891262
0.00887556
0.00882918
0.00876958
0.00868809
0.00855938
0.00831598
0.00791671
0.00796725
0.00806641
0.00805231
0.00791696
0.00765448
0.00729778
0.00704078
0.00660535
0.00427914
0.0004247
)
;

boundaryField
{
    leftWall
    {
        type            nutkWallFunction;
        blending        stepwise;
        Cmu             0.09;
        kappa           0.41;
        E               9.8;
        value           nonuniform List<scalar> 
50
(
8.26843e-06
1.09008e-05
1.22445e-05
1.31414e-05
1.37961e-05
1.42982e-05
1.46913e-05
1.49953e-05
1.53251e-05
1.53791e-05
1.51947e-05
1.47921e-05
1.45824e-05
1.58443e-05
1.3973e-05
1.39199e-05
1.42589e-05
1.46944e-05
1.52255e-05
1.58014e-05
1.63865e-05
1.68875e-05
1.7267e-05
1.75215e-05
1.76583e-05
1.7688e-05
1.7624e-05
1.74807e-05
1.7274e-05
1.70199e-05
1.67354e-05
1.64373e-05
1.61422e-05
1.58651e-05
1.56188e-05
1.54136e-05
1.52571e-05
1.51549e-05
1.51115e-05
1.51324e-05
1.52254e-05
1.54022e-05
1.56774e-05
1.60663e-05
1.65773e-05
1.72028e-05
1.79092e-05
1.86349e-05
1.92933e-05
1.97684e-05
)
;
    }
    rightWall
    {
        type            nutkWallFunction;
        blending        stepwise;
        Cmu             0.09;
        kappa           0.41;
        E               9.8;
        value           nonuniform List<scalar> 
50
(
1.67833e-05
1.94111e-05
2.09584e-05
2.19782e-05
2.3014e-05
2.61017e-05
3.53747e-05
4.02528e-05
4.29129e-05
4.05281e-05
3.59027e-05
3.19944e-05
4.16579e-05
5.87276e-05
6.10654e-05
6.32637e-05
7.2329e-05
9.26234e-05
9.9218e-05
9.6888e-05
9.1174e-05
8.44088e-05
7.84943e-05
7.37164e-05
6.88653e-05
6.25717e-05
5.55096e-05
5.3678e-05
5.30158e-05
5.28675e-05
5.3183e-05
5.35392e-05
5.40978e-05
5.52557e-05
5.87101e-05
6.24111e-05
6.50445e-05
6.52828e-05
6.41703e-05
6.23991e-05
6.0352e-05
5.82507e-05
5.63028e-05
5.48044e-05
5.34583e-05
5.23339e-05
5.14057e-05
5.13175e-05
5.17686e-05
5.14754e-05
)
;
    }
    lowerWall
    {
        type            nutkWallFunction;
        blending        stepwise;
        Cmu             0.09;
        kappa           0.41;
        E               9.8;
        value           nonuniform List<scalar> 
62
(
3.87367e-06
4.81078e-06
5.60969e-06
6.1882e-06
6.63979e-06
7.01563e-06
7.3425e-06
7.63035e-06
7.88345e-06
8.10613e-06
8.30574e-06
8.49465e-06
8.69408e-06
8.94605e-06
9.25806e-06
9.6324e-06
1.00339e-05
1.03959e-05
1.05863e-05
1.03736e-05
9.42149e-06
7.4968e-06
4.79611e-06
4.79611e-06
1.4467e-05
1.66655e-05
1.85118e-05
2.0452e-05
2.28151e-05
2.62354e-05
3.21404e-05
3.72389e-05
3.27667e-05
3.20871e-05
3.66062e-05
1.07725e-05
3.24115e-05
3.58377e-05
3.77019e-05
3.89598e-05
3.98752e-05
4.06401e-05
4.14169e-05
1.07725e-05
1.13591e-05
1.263e-05
1.37775e-05
1.46878e-05
1.54284e-05
1.61162e-05
1.66597e-05
1.71536e-05
1.76656e-05
1.80072e-05
1.74449e-05
1.51425e-05
1.2711e-05
1.14707e-05
1.09975e-05
1.05448e-05
9.42667e-06
7.45038e-06
)
;
    }
    atmosphere
    {
        type            calculated;
        value           nonuniform List<scalar> 
46
(
0.000196284
0.00156069
0.00293249
0.00410779
0.00510372
0.00594099
0.00663872
0.00721491
0.00768639
0.00806832
0.00837327
0.00861057
0.00878939
0.009
0.009
0.009
0.009
0.009
0.009
0.009
0.009
0.009
0.009
0.009
0.009
0.009
0.009
0.009
0.009
0.009
0.009
0.009
0.009
0.009
0.009
0.009
0.00796725
0.00806641
0.00805231
0.00791696
0.00765448
0.00729778
0.00704078
0.009
0.009
0.0004247
)
;
    }
    defaultFaces
    {
        type            empty;
    }
}


// ************************************************************************* //
