/*--------------------------------*- C++ -*----------------------------------*\
| =========                 |                                                 |
| \\      /  F ield         | OpenFOAM: The Open Source CFD Toolbox           |
|  \\    /   O peration     | Version:  v2012                                 |
|   \\  /    A nd           | Website:  www.openfoam.com                      |
|    \\/     M anipulation  |                                                 |
\*---------------------------------------------------------------------------*/
FoamFile
{
    version     2.0;
    format      ascii;
    class       volScalarField;
    location    "0.95";
    object      p;
}
// * * * * * * * * * * * * * * * * * * * * * * * * * * * * * * * * * * * * * //

dimensions      [1 -1 -2 0 0 0 0];


internalField   nonuniform List<scalar> 
2268
(
961.359
955.85
948.741
940.029
930.467
920.319
909.878
899.415
889.146
879.178
869.492
859.928
850.281
840.524
830.874
821.783
813.254
804.132
792.06
775.672
756.367
742.811
738.088
903.912
898.196
890.956
882.319
872.864
862.741
852.244
841.673
831.257
821.087
811.114
801.174
791.047
780.675
770.172
760.07
750.042
739.399
726.478
710.505
692.942
681.154
677.761
846.178
840.199
833.013
824.539
815.165
805.036
794.486
783.846
773.357
763.092
752.957
742.722
732.102
720.865
709.096
697.246
685.451
673.266
659.613
644.144
628.343
618.41
615.485
788.319
781.964
774.829
766.458
757.066
746.856
736.215
725.514
715.007
704.75
694.595
684.23
673.246
661.276
648.307
634.821
621.302
607.729
593.453
578.28
563.415
554.144
551.511
730.36
723.648
716.468
708.069
698.544
688.169
677.39
666.629
656.163
646.029
636.026
625.739
614.582
601.997
587.845
572.651
557.268
542.158
527.116
512.124
497.966
488.918
486.434
672.27
665.288
657.974
649.421
639.656
629.027
618.056
607.233
596.863
586.975
577.31
567.328
556.203
543.081
527.616
510.346
492.578
475.478
459.521
444.983
432.107
423.478
420.987
614.047
606.893
599.374
590.554
580.438
569.462
558.24
547.344
537.128
527.614
518.491
509.073
498.203
484.593
467.567
447.615
426.674
407.034
390.173
376.765
366.329
358.317
356.054
555.737
548.506
540.698
531.498
520.926
509.513
497.983
487.007
476.999
467.986
459.614
451.03
440.65
426.546
407.531
383.923
358.643
335.748
318.084
306.991
300.615
292.269
290.278
876.5
859.022
812.577
732.3
663.079
621.672
598.756
582.232
571.376
580.832
614.767
635.442
609.521
549.566
481.831
424.706
384.456
358.821
354.783
840.858
812.946
756.375
665.244
592.203
551.907
533.496
517.431
502.086
503.631
534.045
560.764
545.628
492.456
425.526
366.626
325.168
300.032
297.365
805.179
757.637
685.702
587.875
518.55
486.388
472.462
454.386
431.859
424.315
453.701
487.068
482.059
435.524
369.943
307.225
263.467
241.283
239.326
757.768
692.186
605.153
504.54
452.961
444.182
438.563
416.719
384.59
371.243
400.951
431.588
425.963
378.012
306.622
236.776
192.967
174.765
177.711
698.283
620.816
522.73
433.475
421.079
430.777
429.485
404.154
367.69
354.809
384.635
407.116
387.191
318.747
233.029
162.379
126.398
116.466
122.96
626.231
547.896
448.865
395.985
406.138
416.88
418.304
396.656
360.174
349.467
375.039
388.465
357.178
265.89
164.001
116.692
103.245
98.0051
100.425
543.068
477.957
395.395
374.239
385.397
386.215
390.138
383.714
349.917
339.921
346.994
342.443
308.498
223.128
133.105
103.26
97.8217
94.4807
96.8347
449.584
413.568
355.446
350.281
352.751
350.52
355.617
361.407
336.727
327.798
321.754
296.298
248.311
172.716
115.738
97.7442
94.5075
90.8203
93.1758
464.576
457.334
448.905
438.914
427.448
415.194
403.059
391.907
382.27
374.211
367.356
360.613
351.559
336.677
313.65
282.393
248.56
220.112
201.726
196.523
199.624
189.109
175.574
341.577
333.91
324.352
312.634
299.162
284.901
270.975
258.901
249.642
243.441
240.114
238.616
234.195
218.558
189.988
152.226
119.932
96.7934
82.7415
83.5762
97.0187
89.913
73.9284
220.833
212.174
200.759
185.676
167.668
148.556
131.72
118.902
110.757
107.293
108.781
116.047
122.032
118.277
101.118
84.8106
70.5852
57.6333
50.1738
47.161
47.0681
42.1868
40.4167
105.068
95.6892
84.2246
68.7012
51.7531
36.5508
26.8177
21.0456
17.9239
16.9099
17.9141
23.0683
31.2293
43.5285
59.9302
68.6073
62.857
50.8101
42.6462
37.4526
31.1557
29.3896
41.6336
25.0096
19.5391
13.6719
7.14304
2.40757
0.223911
-0.274851
-0.368358
-0.399039
-0.400511
-0.337101
0.0139444
1.90878
8.716
24.2658
40.6796
46.2408
42.0421
35.8095
30.2005
25.4325
21.8604
35.5508
-1.02449
-1.22201
-1.04979
-0.974129
-0.90035
-0.873718
-0.878073
-0.876484
-0.856987
-0.831639
-0.841605
-0.919404
-0.888861
-0.265572
2.5849
13.526
24.8138
29.0976
28.7987
25.0342
21.8781
19.6302
17.0388
-1.23098
-1.26944
-1.25472
-1.23086
-1.1793
-1.10926
-1.06245
-1.03425
-1.00901
-0.985415
-0.986853
-1.07786
-1.32767
-1.74597
-1.77266
0.682118
7.72899
14.3759
17.4451
19.1541
19.2833
18.1404
17.243
-1.35852
-1.36717
-1.35796
-1.33798
-1.30139
-1.25751
-1.22563
-1.2062
-1.19683
-1.20394
-1.25182
-1.38464
-1.6421
-2.02259
-2.30042
-2.15232
-1.11561
2.52155
6.12682
9.44356
14.0818
16.5136
16.9241
-1.48058
-1.48367
-1.4741
-1.45885
-1.43793
-1.41729
-1.40299
-1.39753
-1.40488
-1.43549
-1.51137
-1.66187
-1.89688
-2.18405
-2.4232
-2.49227
-2.3704
-2.19895
-0.947925
0.412038
3.84874
8.91978
13.2889
-1.60723
-1.60832
-1.60375
-1.59532
-1.58436
-1.57507
-1.57133
-1.57642
-1.59536
-1.63758
-1.71897
-1.85813
-2.05921
-2.29067
-2.4847
-2.59133
-2.6131
-2.53989
-2.50236
-2.24625
-2.41993
-0.961939
3.67845
-1.73902
-1.73907
-1.73699
-1.7328
-1.72802
-1.72587
-1.72947
-1.74197
-1.76784
-1.81439
-1.8921
-2.01144
-2.17457
-2.36168
-2.52819
-2.63757
-2.68943
-2.67747
-2.60021
-2.63741
-3.01895
-2.86123
-2.65286
-1.87328
-1.87322
-1.87212
-1.8706
-1.87009
-1.87292
-1.88147
-1.89857
-1.9277
-1.9741
-2.0444
-2.14442
-2.27427
-2.42202
-2.56192
-2.66807
-2.73273
-2.75803
-2.75047
-2.70628
-2.63533
-2.82262
-2.88876
-2.00886
-2.00896
-2.00855
-2.00891
-2.01118
-2.01707
-2.0285
-2.04771
-2.07734
-2.12086
-2.1823
-2.26477
-2.3676
-2.48326
-2.59704
-2.69269
-2.76107
-2.80146
-2.81788
-2.80861
-2.75665
-2.65853
-2.65743
-2.14485
-2.14481
-2.14491
-2.14651
-2.15049
-2.15808
-2.17078
-2.19035
-2.21871
-2.25804
-2.31061
-2.37793
-2.45917
-2.54961
-2.64056
-2.72215
-2.78716
-2.83282
-2.86064
-2.87378
-2.87047
-2.85144
-2.86213
-2.28031
-2.27996
-2.28034
-2.28267
-2.2876
-2.29596
-2.30891
-2.32776
-2.35388
-2.38862
-2.43314
-2.488
-2.55237
-2.62321
-2.69526
-2.76237
-2.81953
-2.86387
-2.89493
-2.91414
-2.92349
-2.92693
-2.93342
-2.41473
-2.41408
-2.41453
-2.41718
-2.4225
-2.43101
-2.44353
-2.46104
-2.4845
-2.51473
-2.55226
-2.59713
-2.6485
-2.7043
-2.76119
-2.81521
-2.86286
-2.90172
-2.93062
-2.9494
-2.95855
-2.96017
-2.95395
-2.54795
-2.54699
-2.54732
-2.54998
-2.55528
-2.56351
-2.57522
-2.59108
-2.61178
-2.6378
-2.66935
-2.7062
-2.74754
-2.79185
-2.83686
-2.87992
-2.91852
-2.95071
-2.97521
-2.99129
-2.99863
-2.99753
-2.9871
-2.67985
-2.67858
-2.67866
-2.68109
-2.6861
-2.69378
-2.70446
-2.71859
-2.73662
-2.75884
-2.78529
-2.81563
-2.84913
-2.88458
-2.92036
-2.9546
-2.98545
-3.01139
-3.03122
-3.04406
-3.04931
-3.04674
-3.03537
-2.81048
-2.80891
-2.80865
-2.8107
-2.81522
-2.82219
-2.83176
-2.84419
-2.85976
-2.87862
-2.90072
-2.92571
-2.95296
-2.9815
-3.01008
-3.03731
-3.06183
-3.08243
-3.09809
-3.10794
-3.11132
-3.10792
-3.0969
-2.93996
-2.93814
-2.93752
-2.93909
-2.94299
-2.94915
-2.95759
-2.96842
-2.98179
-2.99772
-3.01614
-3.03672
-3.05892
-3.08197
-3.10489
-3.1266
-3.14605
-3.16229
-3.17448
-3.18185
-3.18379
-3.17999
-3.16986
-3.06848
-3.06646
-3.06551
-3.06658
-3.06981
-3.0751
-3.08242
-3.09177
-3.10318
-3.11662
-3.13194
-3.14887
-3.16697
-3.18561
-3.20404
-3.22139
-3.23683
-3.2496
-3.259
-3.26441
-3.26528
-3.26139
-3.25229
-3.19618
-3.19402
-3.1928
-3.1934
-3.19598
-3.20042
-3.20665
-3.21464
-3.22433
-3.23564
-3.24839
-3.26233
-3.27708
-3.29217
-3.30699
-3.32088
-3.33314
-3.34315
-3.35036
-3.35424
-3.35435
-3.35053
-3.34246
-3.32314
-3.32091
-3.31949
-3.3197
-3.32169
-3.32532
-3.33055
-3.33729
-3.34547
-3.35496
-3.36558
-3.37708
-3.38915
-3.40138
-3.41332
-3.42443
-3.43417
-3.44202
-3.44752
-3.45026
-3.44987
-3.44626
-3.43921
-3.44944
-3.44717
-3.44562
-3.44553
-3.44701
-3.44994
-3.45425
-3.45988
-3.46673
-3.47467
-3.48351
-3.49303
-3.50293
-3.51288
-3.52253
-3.53146
-3.53922
-3.5454
-3.54962
-3.55155
-3.55092
-3.54766
-3.54163
-3.57511
-3.57284
-3.57122
-3.5709
-3.57196
-3.57429
-3.5778
-3.58245
-3.58814
-3.59474
-3.60209
-3.60996
-3.61811
-3.62626
-3.63411
-3.64132
-3.64756
-3.65248
-3.65577
-3.65718
-3.6565
-3.6537
-3.64869
-3.70019
-3.69796
-3.6963
-3.69582
-3.69655
-3.69836
-3.70119
-3.70499
-3.70966
-3.71511
-3.72118
-3.72768
-3.7344
-3.74109
-3.74751
-3.75338
-3.75844
-3.76241
-3.76506
-3.76616
-3.76557
-3.76327
-3.75923
-3.82476
-3.82257
-3.82091
-3.8203
-3.82076
-3.82215
-3.82441
-3.82748
-3.83128
-3.83574
-3.84071
-3.84605
-3.85156
-3.85705
-3.8623
-3.8671
-3.87123
-3.87448
-3.87665
-3.87758
-3.87714
-3.87535
-3.87216
-3.94887
-3.94674
-3.94509
-3.9444
-3.94464
-3.94568
-3.94746
-3.94991
-3.95298
-3.95659
-3.96062
-3.96496
-3.96945
-3.97392
-3.9782
-3.98212
-3.9855
-3.98816
-3.98997
-3.99079
-3.99052
-3.98917
-3.98673
-4.0726
-4.07055
-4.06893
-4.06817
-4.06823
-4.06899
-4.07036
-4.07231
-4.07475
-4.07764
-4.08088
-4.08437
-4.08798
-4.09159
-4.09505
-4.09822
-4.10097
-4.10316
-4.10466
-4.1054
-4.10528
-4.10431
-4.10249
-4.19603
-4.19407
-4.1925
-4.19169
-4.1916
-4.19212
-4.19317
-4.19468
-4.19661
-4.1989
-4.20147
-4.20424
-4.20712
-4.21
-4.21276
-4.2153
-4.21752
-4.2193
-4.22055
-4.22121
-4.22121
-4.22056
-4.21924
-4.31922
-4.31736
-4.31585
-4.31501
-4.31482
-4.31514
-4.31591
-4.31707
-4.31857
-4.32036
-4.32238
-4.32456
-4.32682
-4.32909
-4.33127
-4.33328
-4.33505
-4.33649
-4.33753
-4.33812
-4.33821
-4.33781
-4.3369
-4.44223
-4.44049
-4.43905
-4.43821
-4.43793
-4.43809
-4.43863
-4.4395
-4.44065
-4.44204
-4.4436
-4.44529
-4.44704
-4.4488
-4.45051
-4.45209
-4.45349
-4.45465
-4.45551
-4.45604
-4.4562
-4.456
-4.45542
-4.56512
-4.5635
-4.56215
-4.56132
-4.56098
-4.56102
-4.56138
-4.56201
-4.56287
-4.56391
-4.5651
-4.56638
-4.56773
-4.56908
-4.5704
-4.57164
-4.57274
-4.57368
-4.5744
-4.57489
-4.57511
-4.57507
-4.57476
-4.68791
-4.68643
-4.68518
-4.68438
-4.68401
-4.68396
-4.68417
-4.6846
-4.68522
-4.68598
-4.68686
-4.68781
-4.68882
-4.68985
-4.69087
-4.69183
-4.69271
-4.69347
-4.69409
-4.69454
-4.69482
-4.69491
-4.69481
-4.81065
-4.8093
-4.80817
-4.80743
-4.80704
-4.80692
-4.80702
-4.80729
-4.80771
-4.80823
-4.80885
-4.80953
-4.81027
-4.81104
-4.81182
-4.81258
-4.81329
-4.81392
-4.81446
-4.8149
-4.81522
-4.81542
-4.8155
-4.93334
-4.93215
-4.93114
-4.93047
-4.93009
-4.92992
-4.92993
-4.93007
-4.93032
-4.93065
-4.93104
-4.9315
-4.93201
-4.93258
-4.93319
-4.93381
-4.93439
-4.93493
-4.93542
-4.93585
-4.93621
-4.9365
-4.93671
-5.056
-5.05497
-5.05411
-5.05351
-5.05315
-5.05296
-5.0529
-5.05293
-5.05304
-5.0532
-5.0534
-5.05366
-5.05398
-5.0544
-5.05491
-5.05543
-5.05593
-5.05642
-5.05687
-5.0573
-5.05769
-5.05805
-5.05836
-5.17863
-5.17778
-5.17707
-5.17656
-5.17623
-5.17602
-5.17591
-5.17586
-5.17585
-5.17586
-5.1759
-5.17597
-5.17612
-5.17644
-5.1769
-5.17738
-5.17785
-5.17831
-5.17874
-5.17917
-5.17959
-5.17999
-5.18037
-5.30121
-5.30055
-5.3
-5.29958
-5.2993
-5.29911
-5.29897
-5.29886
-5.29875
-5.29863
-5.2985
-5.29838
-5.29835
-5.29861
-5.29913
-5.29964
-5.30011
-5.30055
-5.30099
-5.30142
-5.30185
-5.30229
-5.30271
-5.42371
-5.42326
-5.42287
-5.42257
-5.42237
-5.42221
-5.42208
-5.42192
-5.42173
-5.42148
-5.42117
-5.42079
-5.42045
-5.42074
-5.42157
-5.42221
-5.42271
-5.42315
-5.42359
-5.42403
-5.42448
-5.42493
-5.42536
-5.5461
-5.5459
-5.54572
-5.5456
-5.54553
-5.54545
-5.54533
-5.54514
-5.54486
-5.54444
-5.54384
-5.54291
-5.54182
-5.54222
-5.54408
-5.54508
-5.54564
-5.54609
-5.54654
-5.54699
-5.54745
-5.5479
-5.54832
-5.66832
-5.66837
-5.66844
-5.66851
-5.66856
-5.66855
-5.66847
-5.66829
-5.66799
-5.66753
-5.66682
-5.66548
-5.66303
-5.66307
-5.66644
-5.66779
-5.66843
-5.66893
-5.66942
-5.66993
-5.67044
-5.67094
-5.67139
155.974
161.511
169.402
159.657
69.6119
80.7083
108.89
147.427
62.5677
89.0463
124.56
158.379
77.8591
103.729
125.192
138.074
51.725
65.8287
76.3783
83.3109
20.8614
29.3031
35.4072
39.9204
15.932
15.1845
15.7213
17.6633
17.766
18.2703
18.6234
19.0838
15.0313
16.0673
16.9997
17.8108
6.44228
7.75826
8.80569
9.76723
-1.28725
-1.23726
-2.18548
-2.20477
-1.02491
-2.56959
-3.52162
-3.62367
-3.02857
-3.28419
-3.1806
-3.05612
-2.90749
-2.92707
-2.89638
-2.80344
-2.94082
-2.93429
-2.91002
-2.86213
-2.93791
-2.9194
-2.89378
-2.86305
-2.96814
-2.94887
-2.9246
-2.89812
-3.0164
-2.99815
-2.9762
-2.95345
-3.07961
-3.06351
-3.04448
-3.02522
-3.15482
-3.14111
-3.12503
-3.10898
-3.23944
-3.22795
-3.21462
-3.20145
-3.3315
-3.32192
-3.31098
-3.30033
-3.42989
-3.42191
-3.41293
-3.40432
-3.53381
-3.52716
-3.51972
-3.51268
-3.64227
-3.63675
-3.63053
-3.62465
-3.75407
-3.74954
-3.74433
-3.73937
-3.86811
-3.86447
-3.86017
-3.85603
-3.98361
-3.98075
-3.97732
-3.97394
-4.10014
-4.09797
-4.09532
-4.09267
-4.21752
-4.21593
-4.21397
-4.21199
-4.33569
-4.33458
-4.3332
-4.33181
-4.45462
-4.4539
-4.453
-4.45208
-4.57428
-4.57385
-4.57332
-4.57278
-4.69458
-4.69439
-4.69414
-4.69389
-4.81546
-4.81543
-4.81538
-4.81534
-4.93681
-4.9369
-4.937
-4.9371
-5.05856
-5.05873
-5.05891
-5.05912
-5.18064
-5.18085
-5.18109
-5.18134
-5.30301
-5.30324
-5.30349
-5.30376
-5.42565
-5.42586
-5.4261
-5.42634
-5.5486
-5.54878
-5.54896
-5.54913
-5.67167
-5.67182
-5.67196
-5.67208
282.236
321.915
308.566
310.336
305.036
306.951
311.313
313.624
312.233
303.403
283.722
241.202
175.673
109.076
88.6145
88.1884
86.9673
83.518
86.0759
216.902
250.985
264.13
266.59
254.51
252.773
253.994
254.216
266.632
251.36
211.387
164.475
102.42
68.1326
64.8882
73.2049
72.1859
66.9064
71.5394
191.84
211.287
226.006
216.543
205.592
203.102
194.654
182.73
184.818
166.552
133.828
100.356
57.6093
46.7945
48.5218
57.5595
54.8913
48.7802
57.1201
147.862
157.503
171.201
175.569
174.471
163.498
132.995
104.12
88.1033
78.615
63.7645
51.3276
29.4503
24.0192
32.2469
39.8587
37.0305
37.5235
44.4564
90.3045
98.961
125.526
145.778
138.235
108.292
68.3426
42.4475
30.1009
27.0419
20.4917
18.2261
9.92474
5.21524
17.1798
23.1734
23.1739
26.1594
29.0217
43.5945
51.1217
77.946
89.9147
77.4424
50.0491
28.5294
18.0024
15.2401
13.0075
13.2574
12.4467
5.14817
0.12057
9.69451
13.6216
16.3381
18.5729
18.4947
22.0394
31.4928
40.9252
44.9372
35.5144
22.173
16.6565
15.97
14.2094
11.662
10.8699
10.629
7.48203
5.5679
8.14689
7.19577
9.38295
11.2148
11.417
20.7146
24.8446
28.6992
23.8477
18.1621
16.5164
15.6562
12.6014
9.56023
8.03992
8.72526
9.52945
8.9966
8.57563
4.9841
1.93824
1.45891
2.05327
3.68581
19.1864
21.4143
21.7134
19.2463
16.6819
12.7259
9.75933
7.07301
4.19297
3.23718
5.82929
7.40527
6.55356
4.3059
2.1583
0.194511
-1.18178
-0.838478
-0.0131093
11.8121
13.6711
13.2893
10.8846
7.47411
4.56824
2.7266
1.66711
-0.218456
0.390584
2.55621
3.78004
2.137
-0.90886
-0.0442347
-0.316782
-1.09141
-0.95419
-0.655926
0.0541033
1.74122
1.78857
0.505929
-0.67346
-0.774698
-0.956843
-1.41234
-1.32306
-1.01793
-0.40538
0.923709
0.0463451
-2.88947
-1.7748
-0.839719
-0.930592
-0.938351
-0.828845
-2.76272
-2.2689
-2.34889
-2.33733
-2.4089
-2.21824
-1.83623
-1.69573
-1.62
-1.53112
-1.56732
-1.0656
0.00986559
-1.60284
-1.39449
-1.14436
-0.974378
-1.05467
-1.00476
-2.97033
-2.87537
-2.66213
-2.3489
-2.13869
-2.06453
-1.98203
-1.87378
-1.78698
-1.75524
-1.88156
-1.91756
-1.75201
-1.63563
-1.71687
-1.33848
-1.15789
-1.21596
-1.19441
-2.64992
-2.51435
-2.39587
-2.28977
-2.23307
-2.16236
-2.07848
-1.99307
-1.95991
-1.96434
-2.00399
-2.04138
-2.06364
-2.08941
-1.89548
-1.5601
-1.42066
-1.40845
-1.39799
-2.75859
-2.64351
-2.5339
-2.43053
-2.34608
-2.26209
-2.17979
-2.12168
-2.10564
-2.10711
-2.12467
-2.15377
-2.17243
-2.11579
-1.95279
-1.78557
-1.67528
-1.6187
-1.60361
-2.80742
-2.71951
-2.62536
-2.53145
-2.44589
-2.36756
-2.29992
-2.25347
-2.2331
-2.23286
-2.24748
-2.26798
-2.27864
-2.24266
-2.14747
-2.01969
-1.9094
-1.82048
-1.7898
-2.85459
-2.78429
-2.70631
-2.62708
-2.55234
-2.48494
-2.42903
-2.39054
-2.3717
-2.36988
-2.38185
-2.39927
-2.40817
-2.38764
-2.32611
-2.23152
-2.12135
-2.00815
-1.93785
-2.91756
-2.86106
-2.79714
-2.73141
-2.66874
-2.61232
-2.56598
-2.53394
-2.51799
-2.51608
-2.52616
-2.54182
-2.55161
-2.54148
-2.50192
-2.43157
-2.33217
-2.20843
-2.07638
-2.99559
-2.95035
-2.89841
-2.84436
-2.79256
-2.74605
-2.70799
-2.68148
-2.66823
-2.66714
-2.67575
-2.68939
-2.70035
-2.69922
-2.67834
-2.63455
-2.56853
-2.47854
-2.34739
-3.08464
-3.04845
-3.0066
-2.96269
-2.9205
-2.88269
-2.85182
-2.83026
-2.81933
-2.81898
-2.82652
-2.83878
-2.85118
-2.858
-2.85479
-2.84039
-2.82103
-2.81902
-2.68347
-3.18163
-3.15269
-3.11918
-3.0839
-3.05003
-3.01974
-2.99505
-2.9778
-2.96904
-2.96889
-2.97576
-2.98743
-3.00129
-3.01459
-3.02558
-3.03493
-3.05094
-3.14058
-2.96833
-3.28438
-3.26131
-3.23463
-3.20655
-3.17967
-3.1557
-3.13622
-3.1226
-3.11574
-3.11577
-3.122
-3.13319
-3.148
-3.1652
-3.18452
-3.20773
-3.24314
-3.34047
-3.18345
-3.39159
-3.37325
-3.35211
-3.32992
-3.30876
-3.28997
-3.27472
-3.26407
-3.25874
-3.25896
-3.26446
-3.27477
-3.28933
-3.30759
-3.32957
-3.35624
-3.39028
-3.45218
-3.37512
-3.50241
-3.48784
-3.47116
-3.45371
-3.43712
-3.42242
-3.4105
-3.40215
-3.39795
-3.39818
-3.40282
-3.41179
-3.42497
-3.4422
-3.46343
-3.48867
-3.5172
-3.55495
-3.51651
-3.61621
-3.60459
-3.59144
-3.57773
-3.56472
-3.55317
-3.54375
-3.53708
-3.53359
-3.53358
-3.53716
-3.54443
-3.55552
-3.57054
-3.58953
-3.61235
-3.63741
-3.664
-3.63534
-3.73234
-3.72303
-3.71264
-3.70185
-3.69157
-3.68238
-3.67477
-3.66921
-3.66604
-3.66552
-3.66783
-3.67314
-3.68172
-3.69386
-3.70985
-3.72988
-3.75264
-3.77386
-3.76407
-3.85017
-3.8427
-3.83446
-3.82591
-3.8177
-3.81024
-3.80389
-3.79898
-3.7958
-3.79455
-3.79541
-3.79858
-3.80434
-3.8131
-3.82527
-3.84134
-3.86058
-3.87567
-3.89857
-3.96915
-3.96318
-3.95665
-3.94982
-3.94317
-3.93697
-3.93146
-3.92688
-3.92343
-3.92129
-3.92059
-3.92151
-3.92428
-3.92922
-3.93663
-3.94673
-3.95831
-3.95876
-3.95335
-4.08888
-4.08417
-4.079
-4.07352
-4.06806
-4.06277
-4.05782
-4.05336
-4.04952
-4.04641
-4.04414
-4.04281
-4.04258
-4.04356
-4.04574
-4.04882
-4.05049
-4.03357
-3.99427
-4.20911
-4.20548
-4.20141
-4.197
-4.19245
-4.18785
-4.18329
-4.17883
-4.17456
-4.17053
-4.16679
-4.16342
-4.16041
-4.1577
-4.15506
-4.15176
-4.14461
-4.11634
-4.06457
-4.32973
-4.327
-4.32385
-4.3203
-4.31647
-4.3124
-4.30811
-4.30363
-4.29898
-4.29416
-4.2892
-4.28411
-4.2788
-4.2731
-4.26661
-4.25847
-4.24527
-4.21229
-4.15933
-4.45068
-4.4487
-4.4463
-4.44345
-4.44022
-4.43658
-4.43253
-4.42806
-4.42312
-4.41771
-4.41182
-4.40544
-4.39846
-4.39062
-4.38149
-4.37016
-4.35345
-4.31976
-4.26975
-4.57192
-4.57057
-4.56878
-4.56652
-4.56379
-4.56054
-4.55674
-4.55233
-4.54724
-4.54145
-4.53493
-4.52771
-4.51967
-4.51055
-4.49989
-4.48677
-4.46833
-4.43576
-4.38983
-4.69344
-4.69258
-4.6913
-4.68954
-4.68725
-4.68437
-4.68086
-4.67662
-4.67155
-4.66559
-4.65874
-4.65104
-4.64248
-4.63282
-4.62155
-4.60768
-4.58863
-4.55777
-4.51568
-4.81522
-4.81475
-4.81388
-4.81253
-4.81064
-4.80815
-4.80498
-4.80104
-4.79618
-4.79028
-4.78333
-4.77547
-4.7668
-4.75722
-4.74614
-4.73235
-4.71339
-4.68394
-4.64552
-4.93721
-4.93704
-4.9365
-4.93551
-4.93399
-4.93189
-4.92914
-4.92565
-4.9212
-4.91558
-4.90874
-4.90091
-4.89248
-4.88355
-4.87344
-4.86071
-4.84307
-4.81633
-4.78009
-5.05938
-5.05944
-5.05917
-5.05847
-5.05729
-5.05558
-5.05334
-5.05047
-5.04667
-5.04157
-5.03504
-5.02771
-5.02009
-5.01216
-5.00337
-4.99253
-4.97855
-4.95519
-4.91957
-5.18171
-5.18193
-5.18184
-5.18139
-5.1805
-5.17919
-5.17751
-5.17545
-5.1726
-5.16831
-5.16254
-5.15596
-5.14931
-5.14253
-5.13547
-5.12848
-5.11903
-5.09843
-5.06255
-5.30417
-5.30446
-5.3045
-5.30421
-5.30357
-5.30261
-5.3015
-5.30046
-5.29897
-5.2957
-5.29075
-5.28493
-5.27887
-5.27292
-5.26754
-5.26481
-5.26146
-5.24442
-5.21021
-5.42672
-5.427
-5.42706
-5.42685
-5.42635
-5.42565
-5.4251
-5.42537
-5.42644
-5.42463
-5.41919
-5.41367
-5.40795
-5.40214
-5.39716
-5.39644
-5.4007
-5.39163
-5.36717
-5.54939
-5.54953
-5.54947
-5.54918
-5.54868
-5.54816
-5.5483
-5.5506
-5.55722
-5.55818
-5.54927
-5.54232
-5.536
-5.52926
-5.52278
-5.52182
-5.53682
-5.54927
-5.55239
-5.67225
-5.67223
-5.67197
-5.67151
-5.67099
-5.67077
-5.67198
-5.67849
-5.69156
-5.68747
-5.67626
-5.66965
-5.66402
-5.65742
-5.64958
-5.64374
-5.67053
-5.73417
-5.77943
)
;

boundaryField
{
    leftWall
    {
        type            calculated;
        value           nonuniform List<scalar> 
50
(
961.359
903.912
846.178
788.319
730.36
672.27
614.047
555.737
464.576
341.577
220.833
105.068
25.0096
-1.02449
-1.23098
-1.35852
-1.48058
-1.60723
-1.73902
-1.87328
-2.00886
-2.14485
-2.28031
-2.41473
-2.54795
-2.67985
-2.81048
-2.93996
-3.06848
-3.19618
-3.32314
-3.44944
-3.57511
-3.70019
-3.82476
-3.94887
-4.0726
-4.19603
-4.31922
-4.44223
-4.56512
-4.68791
-4.81065
-4.93334
-5.056
-5.17863
-5.30121
-5.42371
-5.5461
-5.66832
)
;
    }
    rightWall
    {
        type            calculated;
        value           nonuniform List<scalar> 
50
(
354.783
297.365
239.326
177.711
122.96
100.425
96.8347
93.1758
86.0759
71.5394
57.1201
44.4564
29.0217
18.4947
11.417
3.68581
-0.0131093
-0.655926
-0.828845
-1.00476
-1.19441
-1.39799
-1.60361
-1.7898
-1.93785
-2.07638
-2.34739
-2.68347
-2.96833
-3.18345
-3.37512
-3.51651
-3.63534
-3.76407
-3.89857
-3.95335
-3.99427
-4.06457
-4.15933
-4.26975
-4.38983
-4.51568
-4.64552
-4.78009
-4.91957
-5.06255
-5.21021
-5.36717
-5.55239
-5.77943
)
;
    }
    lowerWall
    {
        type            calculated;
        value           nonuniform List<scalar> 
62
(
990.788
985.279
978.17
969.459
959.896
949.749
939.308
928.845
918.575
908.607
898.921
889.357
879.711
869.953
860.125
850.255
841.638
832.516
820.445
804.059
784.755
771.729
767.494
738.088
677.761
615.485
551.511
486.434
420.987
356.054
290.278
211.794
217.331
227.132
221.578
876.5
840.858
805.179
757.768
698.283
626.231
543.068
449.584
892.157
883.296
841.906
761.596
692.356
650.961
627.489
610.223
599.367
608.854
642.907
663.247
636.701
576.516
508.781
451.656
411.82
386.176
382.793
)
;
    }
    atmosphere
    {
        type            calculated;
        value           nonuniform List<scalar> 
46
(
-5.72904
-5.72904
-5.72904
-5.72904
-5.72904
-5.72904
-5.72904
-5.72904
-5.72904
-5.72904
-5.72904
-5.72904
-5.72904
-5.72908
-5.7292
-5.72943
-5.72977
-5.7302
-5.73071
-5.73128
-5.73187
-5.73244
-5.73296
-5.73328
-5.73345
-5.73361
-5.73373
-5.73388
-5.73379
-5.73337
-5.73266
-5.73174
-5.73076
-5.72987
-5.72923
-5.72904
-5.72904
-5.72904
-5.72904
-5.72905
-5.72904
-5.72904
-5.72904
-5.72972
-5.72949
-5.94813
)
;
    }
    defaultFaces
    {
        type            empty;
    }
}


// ************************************************************************* //
