/*--------------------------------*- C++ -*----------------------------------*\
| =========                 |                                                 |
| \\      /  F ield         | OpenFOAM: The Open Source CFD Toolbox           |
|  \\    /   O peration     | Version:  v2012                                 |
|   \\  /    A nd           | Website:  www.openfoam.com                      |
|    \\/     M anipulation  |                                                 |
\*---------------------------------------------------------------------------*/
FoamFile
{
    version     2.0;
    format      ascii;
    class       volScalarField;
    location    "0.95";
    object      p_rgh;
}
// * * * * * * * * * * * * * * * * * * * * * * * * * * * * * * * * * * * * * //

dimensions      [1 -1 -2 0 0 0 0];


internalField   nonuniform List<scalar> 
2268
(
990.788
985.279
978.17
969.459
959.896
949.749
939.308
928.845
918.575
908.607
898.921
889.357
879.711
869.953
860.125
850.255
841.638
832.516
820.445
804.059
784.755
771.729
767.494
992.201
986.485
979.244
970.607
961.152
951.029
940.532
929.961
919.545
909.375
899.402
889.462
879.335
868.962
858.456
848.268
837.643
826.533
813.545
797.779
780.552
768.868
765.979
993.325
987.346
980.16
971.686
962.312
952.183
941.633
930.993
920.504
910.239
900.104
889.869
879.249
868.012
856.243
844.392
832.598
820.413
806.759
791.291
775.49
765.557
762.572
994.325
987.969
980.835
972.464
963.071
952.862
942.221
931.519
921.013
910.755
900.6
890.236
879.252
867.281
854.312
840.827
827.307
813.734
799.459
784.285
769.42
760.14
757.445
995.224
988.513
981.332
972.933
963.409
953.033
942.254
931.493
921.027
910.893
900.89
890.603
879.446
866.861
852.709
837.515
822.132
807.022
791.98
776.988
762.829
753.748
751.207
995.993
989.011
981.697
973.144
963.379
952.75
941.779
930.956
920.586
910.698
901.033
891.051
879.926
866.804
851.339
834.069
816.3
799.2
783.241
768.703
755.826
747.177
744.654
996.629
989.475
981.956
973.136
963.02
952.044
940.822
929.925
919.709
910.196
901.072
891.655
880.784
867.175
850.148
830.195
809.249
789.595
772.72
759.311
748.891
740.869
738.602
997.178
989.946
982.138
972.939
962.366
950.954
939.423
928.447
918.439
909.426
901.054
892.471
882.09
867.986
848.969
825.351
800.027
777.027
759.221
748.108
741.904
733.671
731.677
892.157
883.296
841.906
761.596
692.356
650.961
627.489
610.223
599.367
608.854
642.907
663.247
636.701
576.516
508.781
451.656
411.82
386.176
382.793
903.507
897.919
844.362
753.23
680.174
639.793
621.371
605.257
589.848
591.36
621.777
648.505
633.422
578.385
507.241
447.483
406.034
381.185
381.953
945.661
904.278
832.347
734.517
665.158
629.763
614.159
598.404
577.528
570.405
599.834
633.391
628.469
581.935
516.344
451.442
404.125
382.251
380.305
962.745
897.322
810.462
709.771
604.049
526.052
509.314
503.275
492.7
496.059
564.891
633.826
630.901
582.986
511.564
441.64
391.873
371.936
375.066
961.702
884.367
786.078
618.347
453.363
461.304
459.412
434.026
397.456
384.681
446.682
563.218
598.853
577.242
477.105
354.722
261.048
245.812
298.418
948.037
869.746
737.127
452.495
446.503
465.233
460.879
433.039
396.556
385.849
444.292
493.468
473.906
448.426
321.521
170.936
121.011
115.522
122.387
923.259
856.115
635.983
439.669
470.604
633.514
610.439
426.794
392.914
383.711
588.659
585.413
468.729
275.675
163.53
124.183
118.525
115.167
117.522
887.898
848.002
575.231
435.203
602.703
652.264
657.504
538.113
386.434
378.771
601.096
576.676
528.68
372.564
145.887
121.602
118.404
114.689
117.045
998.043
990.801
982.372
972.381
960.915
948.661
936.526
925.374
915.737
907.678
900.823
894.08
885.026
870.139
847.072
815.71
781.409
749.345
725.518
719.09
730.033
709.49
679.974
1000.24
992.572
983.014
971.296
957.823
943.563
929.636
917.563
908.304
902.102
898.775
897.277
892.851
877.176
845.815
755.041
589.155
449.226
372.573
367.74
533.066
695.555
712.377
1004.69
996.03
984.615
969.532
951.524
932.412
892.106
851.897
821.931
804.89
801.577
818.28
828.677
818.446
671.521
350.722
155.469
88.2611
68.9743
65.0205
231.384
773.603
810.519
1011.64
973.316
904.308
793.5
642.671
475.451
351.259
271.09
226.614
209.495
209.463
257.167
309.091
327.403
247.679
159.479
111.608
73.5686
61.5896
53.5344
57.781
542.435
935.116
454.253
365.153
247.472
127.843
44.9191
8.96766
2.33483
1.83208
1.61641
1.64075
2.04861
3.30258
7.16835
23.5047
80.8183
142.978
145.441
133.751
60.2743
43.6606
34.0529
49.5458
724.171
2.40587
1.00402
1.23858
0.998312
0.777634
0.599383
0.486327
0.432512
0.442419
0.525148
0.713122
1.11705
1.78693
3.8779
41.7408
118.969
129.593
133.253
132.665
51.6923
30.0245
26.0221
23.1669
0.209795
0.137753
0.164185
0.159083
0.176984
0.219816
0.251669
0.27348
0.30101
0.344386
0.411451
0.5054
0.58019
0.68016
2.23721
36.277
113.292
128.799
130
112.405
26.387
25.0289
24.1137
0.072127
0.0586952
0.0713298
0.0870131
0.118736
0.158876
0.188694
0.207421
0.217638
0.215233
0.185983
0.106163
-0.0585735
-0.337954
-0.510159
-0.418777
6.70638
88.8777
124.469
120.872
90.2106
24.3174
24.4617
0.05712
0.0534829
0.0636078
0.078346
0.098621
0.118735
0.132747
0.138142
0.131027
0.101485
0.0292538
-0.109515
-0.320167
-0.58975
-0.830805
-0.892488
-0.710905
0.138598
57.4814
115.183
111.661
102.785
28.0244
0.0533476
0.052192
0.0568567
0.0652205
0.076088
0.0853048
0.0890063
0.0839089
0.0650236
0.0230296
-0.0575305
-0.194229
-0.390134
-0.616871
-0.811685
-0.92018
-0.94813
-0.856051
-0.637886
28.6416
111.421
115.138
119.778
0.0464419
0.0463845
0.0484799
0.0526582
0.0574229
0.0595636
0.0559642
0.0434641
0.0175994
-0.0289067
-0.106437
-0.225221
-0.387304
-0.573383
-0.739916
-0.850021
-0.90263
-0.892306
-0.825263
-0.831612
0.229431
79.2853
122.202
0.0373303
0.0373893
0.0384937
0.0400102
0.040523
0.0376871
0.029137
0.0120402
-0.0170917
-0.0634786
-0.133745
-0.233657
-0.363298
-0.510842
-0.650724
-0.75701
-0.821854
-0.847272
-0.839796
-0.797962
-0.725526
-0.960602
12.0306
0.0269463
0.0268445
0.0272541
0.0268935
0.0246184
0.0187349
0.00730064
-0.0119035
-0.0415378
-0.0850597
-0.146494
-0.228939
-0.331729
-0.447353
-0.561131
-0.656798
-0.725203
-0.765565
-0.781901
-0.772801
-0.720841
-0.62273
-0.621628
0.0161423
0.0161885
0.0160891
0.0144849
0.0105016
0.00292059
-0.00978836
-0.0293547
-0.0577138
-0.0970477
-0.149615
-0.216929
-0.298165
-0.388593
-0.479547
-0.561136
-0.626153
-0.671802
-0.699618
-0.712736
-0.709405
-0.690417
-0.701123
0.00588467
0.00623307
0.00585173
0.00352116
-0.00140789
-0.00977386
-0.0227217
-0.0415705
-0.0676914
-0.10243
-0.146948
-0.201808
-0.266178
-0.337015
-0.409063
-0.476181
-0.533337
-0.57768
-0.608741
-0.627938
-0.637289
-0.64072
-0.647204
-0.00334849
-0.00269926
-0.00314751
-0.00579763
-0.0111123
-0.0196255
-0.0321485
-0.049659
-0.0731184
-0.103347
-0.140878
-0.185742
-0.237111
-0.292912
-0.349802
-0.403826
-0.451469
-0.490332
-0.519238
-0.538014
-0.54716
-0.548787
-0.542564
-0.0113698
-0.0104129
-0.0107426
-0.0134022
-0.018702
-0.0269338
-0.0386366
-0.0545019
-0.075198
-0.101224
-0.132775
-0.169623
-0.210963
-0.255269
-0.300283
-0.343343
-0.381939
-0.414129
-0.43863
-0.454711
-0.462052
-0.460952
-0.450519
-0.018078
-0.0168073
-0.0168821
-0.0193192
-0.024326
-0.0320089
-0.0426885
-0.0568191
-0.0748462
-0.0970695
-0.123517
-0.15386
-0.187356
-0.222808
-0.25859
-0.292823
-0.323679
-0.349617
-0.369446
-0.382289
-0.38754
-0.384964
-0.373592
-0.0235069
-0.0219381
-0.0216778
-0.0237285
-0.0282475
-0.0352169
-0.044788
-0.0572239
-0.0727909
-0.0916495
-0.113747
-0.138746
-0.165995
-0.19453
-0.22311
-0.250342
-0.274864
-0.295464
-0.311119
-0.320972
-0.324356
-0.320949
-0.309927
-0.0277993
-0.0259733
-0.0253537
-0.0269248
-0.0308303
-0.0369849
-0.0454227
-0.0562609
-0.069623
-0.0855599
-0.103973
-0.124553
-0.146756
-0.169804
-0.192724
-0.214437
-0.233889
-0.25013
-0.262313
-0.269687
-0.271623
-0.267831
-0.257692
-0.0311254
-0.0291012
-0.0281485
-0.0292183
-0.0324549
-0.0377467
-0.0450611
-0.0544156
-0.0658272
-0.0792616
-0.0945834
-0.111515
-0.129612
-0.148256
-0.166681
-0.184034
-0.199474
-0.212239
-0.22164
-0.227048
-0.227922
-0.224028
-0.214932
-0.0336263
-0.0314682
-0.0302434
-0.030849
-0.0334281
-0.0378645
-0.0440963
-0.0520851
-0.0617789
-0.0730836
-0.0858348
-0.0997737
-0.114532
-0.129621
-0.144443
-0.158325
-0.170586
-0.180601
-0.187806
-0.191687
-0.191802
-0.187978
-0.179912
-0.0353969
-0.0331628
-0.0317403
-0.0319556
-0.0339387
-0.0375768
-0.042799
-0.0495439
-0.0577256
-0.0672173
-0.0778371
-0.0893372
-0.1014
-0.113634
-0.12557
-0.136681
-0.14642
-0.154272
-0.159773
-0.162508
-0.162128
-0.158517
-0.151467
-0.0364967
-0.0342318
-0.0326815
-0.0325914
-0.0340675
-0.0369971
-0.0413089
-0.0469379
-0.0537901
-0.0617301
-0.0705736
-0.0800856
-0.089984
-0.0999434
-0.109592
-0.118515
-0.126276
-0.132457
-0.136679
-0.138609
-0.137977
-0.134717
-0.12869
-0.0369702
-0.0347069
-0.0330844
-0.0327665
-0.0338282
-0.0361516
-0.0396663
-0.0443117
-0.0499999
-0.0566033
-0.0639497
-0.0718237
-0.079975
-0.0881259
-0.0959732
-0.103187
-0.109421
-0.11434
-0.117638
-0.119049
-0.118367
-0.115566
-0.110556
-0.0368638
-0.0346257
-0.0329707
-0.0324862
-0.0332149
-0.0350307
-0.0378631
-0.0416565
-0.0463333
-0.0517819
-0.0578515
-0.0643534
-0.0710696
-0.0777622
-0.0841789
-0.090053
-0.0951103
-0.0990828
-0.101726
-0.102831
-0.102237
-0.0999443
-0.0958957
-0.0362349
-0.0340409
-0.0323809
-0.0317741
-0.0322344
-0.0336291
-0.0358863
-0.0389527
-0.04276
-0.0472137
-0.0521875
-0.0575229
-0.0630353
-0.0685235
-0.073777
-0.0785786
-0.0827092
-0.0859567
-0.0881268
-0.0890535
-0.0886158
-0.0868234
-0.0836388
-0.0351521
-0.0330193
-0.0313739
-0.0306763
-0.030918
-0.0319641
-0.0337405
-0.0361938
-0.0392622
-0.042866
-0.0469016
-0.0512396
-0.0557281
-0.0602005
-0.0644833
-0.0684002
-0.0717764
-0.0744447
-0.076252
-0.0770664
-0.076797
-0.0754546
-0.0730124
-0.03369
-0.0316344
-0.0300196
-0.0292548
-0.0293176
-0.0300749
-0.031451
-0.0333917
-0.0358394
-0.0387255
-0.041965
-0.0454539
-0.0490696
-0.0526777
-0.056138
-0.0593098
-0.0620547
-0.0642414
-0.0657507
-0.0664815
-0.0663612
-0.0653992
-0.0635751
-0.0319226
-0.0299587
-0.028389
-0.0275777
-0.0274954
-0.028014
-0.0290578
-0.0305722
-0.0325029
-0.0347897
-0.0373617
-0.0401352
-0.0430132
-0.0458893
-0.0486535
-0.0511953
-0.0534071
-0.0551872
-0.0564442
-0.0571003
-0.0570989
-0.0564466
-0.0551274
-0.0299181
-0.0280589
-0.0265482
-0.0257105
-0.0255139
-0.0258368
-0.0266056
-0.027767
-0.0292699
-0.0310604
-0.0330786
-0.0352569
-0.0375193
-0.0397839
-0.041966
-0.0439811
-0.0457467
-0.0471854
-0.0482282
-0.0488161
-0.0489061
-0.0485024
-0.0475921
-0.0277363
-0.0259921
-0.0245545
-0.023711
-0.0234288
-0.023594
-0.0241369
-0.0250072
-0.0261572
-0.0275385
-0.0291001
-0.0307879
-0.0325436
-0.0343054
-0.0360095
-0.0375923
-0.0389916
-0.0401497
-0.0410153
-0.041545
-0.0417069
-0.0415033
-0.040924
-0.0254266
-0.0238059
-0.0224559
-0.0216272
-0.0212862
-0.0213275
-0.0216872
-0.0223183
-0.023177
-0.0242205
-0.0254063
-0.0266921
-0.0280346
-0.029389
-0.0307082
-0.0319442
-0.0330503
-0.0339843
-0.0347092
-0.0351941
-0.0354156
-0.0353749
-0.0350632
-0.023028
-0.0215386
-0.020291
-0.0194966
-0.0191213
-0.019069
-0.0192817
-0.0197165
-0.020334
-0.0210973
-0.0219725
-0.0229285
-0.023936
-0.0249647
-0.0259802
-0.0269446
-0.0278227
-0.0285836
-0.0292018
-0.0296561
-0.0299297
-0.0300226
-0.0299266
-0.0205687
-0.0192196
-0.0180889
-0.0173463
-0.0169581
-0.0168382
-0.0169345
-0.0172084
-0.017625
-0.0181539
-0.0187699
-0.0194535
-0.0201892
-0.0209608
-0.0217429
-0.0225017
-0.0232083
-0.0238407
-0.0243819
-0.0248182
-0.0251379
-0.02534
-0.0254163
-0.0180668
-0.0168697
-0.0158693
-0.0151929
-0.0148098
-0.0146443
-0.01465
-0.0147921
-0.0150404
-0.0153708
-0.0157671
-0.0162216
-0.0167344
-0.017307
-0.0179186
-0.0185304
-0.019115
-0.0196567
-0.0201454
-0.0205733
-0.0209326
-0.021222
-0.021433
-0.0155313
-0.0145002
-0.0136418
-0.0130428
-0.0126796
-0.0124876
-0.012425
-0.01246
-0.0125666
-0.0127262
-0.0129311
-0.0131859
-0.01351
-0.0139336
-0.0144362
-0.0149565
-0.0154634
-0.0159466
-0.0164023
-0.016828
-0.0172196
-0.0175756
-0.0178874
-0.0129619
-0.012112
-0.0114038
-0.0108907
-0.0105609
-0.0103602
-0.0102498
-0.0102002
-0.0101879
-0.0101989
-0.0102319
-0.010302
-0.010453
-0.0107726
-0.0112343
-0.0117192
-0.0121888
-0.012641
-0.0130796
-0.0135073
-0.0139234
-0.0143269
-0.0147088
-0.0103469
-0.00969151
-0.00913666
-0.00871791
-0.0084369
-0.00824685
-0.00811038
-0.00799858
-0.00788933
-0.00777055
-0.00764319
-0.0075245
-0.00748662
-0.00775319
-0.00827117
-0.00878182
-0.0092496
-0.00969359
-0.0101281
-0.0105612
-0.0109952
-0.0114287
-0.0118509
-0.00765913
-0.00721064
-0.00681784
-0.00651589
-0.0063119
-0.0061599
-0.00602176
-0.00586824
-0.00567608
-0.00543003
-0.00511923
-0.00473372
-0.00439244
-0.00468596
-0.00551235
-0.00615623
-0.00665219
-0.00710103
-0.0075396
-0.00798044
-0.00842628
-0.00887317
-0.00930516
-0.00485304
-0.00465056
-0.00447529
-0.00435455
-0.00428035
-0.00420305
-0.00408503
-0.00389621
-0.00360776
-0.00319077
-0.00258755
-0.00166073
-0.000574095
-0.000968666
-0.00282804
-0.00383284
-0.00438886
-0.00484598
-0.00529208
-0.00574351
-0.00619966
-0.00665012
-0.00707524
-0.00187286
-0.00193082
-0.00199987
-0.00206737
-0.00211302
-0.00210638
-0.00202528
-0.00184824
-0.00154857
-0.00109063
-0.000376216
0.00096723
0.00341516
0.00336952
-3.31268e-07
-0.00135038
-0.00198605
-0.00248671
-0.00297821
-0.00348423
-0.00399838
-0.00449818
-0.00495211
631.684
637.221
661.387
687.363
713.573
708.826
750.432
798.29
832.993
859.293
894.926
931.795
971.44
997.261
1018.56
1031.89
1068.39
1082.47
1093.22
1100.02
224.003
537.988
647.698
654.245
22.8122
22.3156
27.3182
31.3159
25.6396
26.4879
26.9801
27.4654
27.5209
25.5968
26.733
29.5353
122.542
103.193
86.8181
78.6144
122.163
120.808
119.151
122.928
116.804
36.3936
-1.00574
10.4238
-0.992767
-1.24839
-1.1448
-1.02032
-0.74649
-0.766071
-0.735383
-0.64244
-0.654609
-0.648076
-0.623821
-0.575931
-0.526522
-0.508016
-0.482395
-0.451662
-0.431555
-0.412289
-0.388018
-0.361537
-0.354631
-0.336381
-0.314429
-0.291675
-0.292642
-0.276544
-0.257507
-0.238247
-0.242654
-0.228948
-0.212869
-0.196814
-0.202081
-0.190597
-0.177264
-0.164092
-0.168944
-0.15937
-0.148431
-0.137773
-0.142139
-0.134159
-0.125183
-0.116578
-0.120867
-0.114219
-0.106781
-0.0997375
-0.104132
-0.0986147
-0.0923904
-0.0865094
-0.0907391
-0.0862107
-0.0810032
-0.0760433
-0.0795874
-0.0759413
-0.0716497
-0.0675028
-0.0698952
-0.0670353
-0.0635966
-0.0602189
-0.0612297
-0.0590572
-0.0564026
-0.0537554
-0.0534109
-0.0518221
-0.0498615
-0.0478827
-0.0463834
-0.0452756
-0.043902
-0.0425044
-0.0401218
-0.0393988
-0.0385006
-0.037583
-0.034583
-0.0341594
-0.0336318
-0.0330929
-0.0296979
-0.0295009
-0.0292521
-0.0290004
-0.0253797
-0.0253491
-0.0253029
-0.025261
-0.0215384
-0.0216254
-0.0217201
-0.0218254
-0.0180928
-0.0182576
-0.0184435
-0.0186452
-0.0149783
-0.0151879
-0.0154236
-0.0156789
-0.0121512
-0.0123764
-0.0126264
-0.0128968
-0.0095988
-0.00981038
-0.0100416
-0.0102894
-0.00735457
-0.007532
-0.00770757
-0.00788409
-0.00522369
-0.00537886
-0.00551671
-0.00563921
811.109
836.391
485.623
418.845
577.757
671.747
676.094
673.019
373.534
365.669
568.866
579.995
514.497
354.476
127.628
119.362
128.829
119.296
114.922
866.337
663.38
411.01
412.976
634.492
702.83
704.251
702.767
437.721
406.361
601.155
581.511
427.891
120.757
106.357
124.04
134.388
128.753
108.492
904.041
493.31
439.406
655.869
613.718
504.21
685.018
713.186
665.517
657.743
626.58
594.784
381.605
96.1643
97.6815
131.429
128.932
122.835
102.854
1010.09
882.545
892.589
662.18
311.099
381.53
741.97
717.03
695.057
666.023
581.83
470.162
474.464
100.15
89.2675
125.031
122.531
89.8284
102.044
1105.8
866.047
533.217
357.108
444.052
784.651
758.342
589.113
332.214
326.25
86.6848
31.6441
441.017
80.9077
83.5578
119.382
35.1082
51.042
89.8073
522.742
260.065
221.43
598.517
789.37
754.434
398.073
66.8529
21.5592
18.8006
19.0677
24.2603
126.243
106.304
112.12
93.7406
25.743
28.1094
28.0354
33.8819
53.3754
209.587
631.525
625.93
183.624
47.645
46.4344
48.0007
22.9321
17.099
17.1034
14.0424
110.875
113.471
41.2462
19.8034
21.8255
23.9132
29.7975
51.3351
184.363
164.708
55.2491
51.945
49.1008
64.3241
91.0928
43.7355
15.3562
16.46
28.6841
110.392
42.4632
9.37407
12.6948
16.0401
17.7499
32.1432
39.4614
88.7052
70.024
65.4052
61.229
79.6207
98.0087
93.3161
16.923
11.9441
25.8634
102.684
86.8772
9.15878
4.78195
5.63758
3.05796
2.74607
81.7736
101.778
86.5828
80.4953
119.347
116.466
111.002
94.0359
11.8787
3.49656
8.97536
80.6549
118.651
115.541
31.8011
3.95388
0.611484
0.709982
1.00697
126.147
127.834
127.881
125.051
116.57
73.7156
36.2332
0.647503
0.563065
0.994889
11.8165
111.661
125.347
122.269
121.275
12.9371
0.882726
0.899811
0.958308
63.2981
86.8646
56.5935
30.974
0.909026
-0.30663
0.0758654
0.219876
0.335896
0.496371
0.801889
31.3367
128.337
131.721
119.246
5.534
0.936673
0.856216
0.906822
-0.934535
-0.839576
-0.626329
-0.313101
-0.102874
-0.0285504
0.0558368
0.35165
1.93855
2.11918
1.74615
0.21505
12.3054
34.488
18.364
0.699885
0.877834
0.820034
0.84169
-0.488919
-0.353349
-0.234873
-0.128759
-0.0720294
-0.00105256
0.0857631
0.683446
1.3775
0.914972
0.298659
0.201775
0.104402
0.237786
0.301427
0.599608
0.740364
0.752575
0.763361
-0.472397
-0.357316
-0.24768
-0.144163
-0.0598287
0.0247711
0.133534
0.196265
0.182639
0.194453
0.162105
0.135245
0.119887
0.175808
0.333361
0.50066
0.610946
0.667798
0.684151
-0.396033
-0.308123
-0.213972
-0.120021
-0.0344635
0.0439794
0.111574
0.158281
0.179908
0.179726
0.164456
0.145433
0.134551
0.169015
0.26397
0.391758
0.502025
0.593252
0.62997
-0.318009
-0.247708
-0.16973
-0.0904983
-0.0157609
0.0516421
0.107554
0.150728
0.175839
0.166813
0.154831
0.137671
0.129181
0.150001
0.2108
0.305122
0.415497
0.544331
0.63717
-0.255788
-0.199289
-0.13537
-0.0696345
-0.00696435
0.0494514
0.0957925
0.127834
0.156226
0.168993
0.13571
0.120048
0.110254
0.12038
0.159936
0.230282
0.331995
0.662196
1.6744
-0.208626
-0.163382
-0.111441
-0.0573904
-0.00559121
0.0409213
0.0789807
0.10549
0.119568
0.15158
0.120286
0.097679
0.0867191
0.0879444
0.108738
0.15252
0.218614
1.01225
9.77915
-0.17248
-0.136286
-0.0944335
-0.0505249
-0.00834093
0.0294729
0.0603383
0.0819059
0.0928313
0.103936
0.0980765
0.0835244
0.0626747
0.0543985
0.0575325
0.0718354
0.091143
1.17328
12.1225
-0.144268
-0.115329
-0.0818187
-0.0465453
-0.0126746
0.0176206
0.0423029
0.0595605
0.0683192
0.0684697
0.0688844
0.0604716
0.0465602
0.0262998
0.0118165
0.00245867
-0.0135789
0.959455
12.4844
-0.121832
-0.0987613
-0.0720779
-0.043999
-0.0171156
0.00685046
0.0263363
0.0399517
0.046817
0.0467854
0.0405625
0.0321966
0.0215486
0.0017287
-0.0217129
-0.0451643
-0.0805823
0.33597
12.8937
-0.103839
-0.0855034
-0.0643659
-0.0421771
-0.0210151
-0.00221934
0.0130298
0.0236791
0.0290089
0.0288841
0.023533
0.0132218
-0.00123767
-0.0196162
-0.041677
-0.0684614
-0.102525
-0.0846558
13.2881
-0.0894685
-0.0748985
-0.0582159
-0.040767
-0.0241791
-0.00947968
0.00244239
0.0107907
0.0149876
0.0148648
0.0103943
0.00142576
-0.0119402
-0.0292504
-0.0504832
-0.0757288
-0.104256
-0.142009
13.6063
-0.0780743
-0.0664548
-0.0532998
-0.039596
-0.0265821
-0.0150328
-0.00561686
0.00105993
0.00454314
0.00456045
0.00112844
-0.00606306
-0.0172815
-0.0323922
-0.051392
-0.0742068
-0.0992654
-0.125863
13.782
-0.0690127
-0.0597022
-0.049308
-0.0385154
-0.0282385
-0.0190479
-0.0114408
-0.00587623
-0.00270913
-0.00219345
-0.00449424
-0.0097851
-0.018357
-0.0305146
-0.0465092
-0.0665457
-0.0893015
-0.110523
12.4519
-0.0616472
-0.0541754
-0.0459376
-0.0373865
-0.0291781
-0.0217182
-0.0153655
-0.0104576
-0.00727154
-0.00602488
-0.00688541
-0.0100501
-0.015818
-0.0245713
-0.0367353
-0.052806
-0.0720352
-0.0871371
3.39948
-0.0554298
-0.0494637
-0.0429261
-0.0361029
-0.0294528
-0.0232508
-0.0177419
-0.0131605
-0.00971258
-0.00756894
-0.00687066
-0.00778475
-0.0105599
-0.0155023
-0.0229036
-0.0330124
-0.044429
-0.0450318
0.140013
-0.0499619
-0.0452596
-0.0400845
-0.034608
-0.0291411
-0.0238573
-0.0189102
-0.0144457
-0.0105993
-0.00748568
-0.00521517
-0.00389625
-0.00366368
-0.00464205
-0.00682414
-0.00990712
-0.0113285
0.0054044
0.0447044
-0.0450017
-0.0413714
-0.0373053
-0.0328955
-0.0283423
-0.0237417
-0.0191764
-0.0147207
-0.010436
-0.00639944
-0.00266811
0.000702658
0.00370325
0.00640794
0.00905513
0.012424
0.0197475
0.0478817
0.099614
-0.0404258
-0.0377006
-0.0345457
-0.0309957
-0.0271657
-0.0230934
-0.0188079
-0.0143293
-0.00966941
-0.00484455
0.000123998
0.00521975
0.0105132
0.0162087
0.022696
0.0308822
0.0442938
0.0771524
0.130061
-0.0361782
-0.0342063
-0.0318023
-0.0289568
-0.0257182
-0.0220822
-0.0180308
-0.0135568
-0.00861932
-0.00320543
0.00269835
0.00911138
0.0160831
0.0238873
0.0330299
0.0444829
0.0612175
0.0948596
0.14485
-0.0322301
-0.030874
-0.0290881
-0.0268287
-0.0240935
-0.0208458
-0.0170422
-0.0125673
-0.00752589
-0.00174094
0.0048034
0.0120401
0.0200783
0.0291636
0.0398109
0.0529907
0.0714287
0.104006
0.150017
-0.0285581
-0.0276965
-0.0264176
-0.024652
-0.022361
-0.0194869
-0.0159708
-0.0116363
-0.00600858
-0.00021794
0.00621935
0.0138627
0.0224305
0.0320816
0.0433431
0.0572173
0.0762596
0.107186
0.149671
-0.0251357
-0.0246644
-0.0237982
-0.0224514
-0.0205633
-0.0180671
-0.0148985
-0.0107019
-0.00542587
0.000385073
0.00679266
0.0146226
0.0232866
0.0328647
0.0439423
0.0577344
0.0795414
0.129339
0.201448
-0.0219322
-0.0217626
-0.0212278
-0.0202355
-0.0187167
-0.0166106
-0.0138639
-0.0102893
-0.00523461
3.90039e-05
0.00654101
0.0143771
0.0261447
0.0374674
0.0444902
0.0545713
0.139632
0.453749
0.324038
-0.0189141
-0.0189703
-0.0186952
-0.0179986
-0.0168166
-0.0151107
-0.0128646
-0.00999925
-0.0061959
-0.000583137
0.00821775
0.053974
0.101047
0.106861
0.0594903
0.0480109
0.367292
0.512341
0.330641
-0.0160483
-0.0162609
-0.0161789
-0.0157207
-0.014837
-0.0135262
-0.0118396
-0.00978792
-0.00693432
-0.0026391
0.0591454
0.0923767
0.0990695
0.0857811
0.0330948
0.258043
0.484307
0.504331
0.26607
-0.0133061
-0.0136018
-0.0136412
-0.0133558
-0.0127138
-0.0117529
-0.0106307
-0.00959573
-0.00811289
-0.00484098
0.0167522
0.0906393
0.0967009
0.0607647
0.0254217
0.0395022
0.351913
0.244299
0.208798
-0.010668
-0.010949
-0.0110085
-0.0107957
-0.0102945
-0.00959202
-0.00903961
-0.009305
-0.0103777
-0.00857701
-0.00312904
0.0228987
0.0381612
0.022316
0.0209179
0.0196601
0.0154988
0.0262775
0.274189
-0.00814324
-0.00828648
-0.00822583
-0.00793518
-0.00742963
-0.00690921
-0.00704665
-0.00933787
-0.0159607
-0.0169281
-0.00801392
-0.00106035
0.00525857
0.0119946
0.0186015
0.0194597
0.00442474
-0.00802559
0.219202
-0.0058035
-0.00578446
-0.0055277
-0.00507021
-0.00455102
-0.0043273
-0.00553858
-0.0120446
-0.0251159
-0.0210207
-0.00981135
-0.00320294
0.00243109
0.00903022
0.016869
0.0227083
-0.00408819
-0.067723
0.103707
)
;

boundaryField
{
    leftWall
    {
        type            fixedFluxPressure;
        gradient        uniform 0;
        value           nonuniform List<scalar> 
50
(
990.788
992.201
993.325
994.325
995.224
995.993
996.629
997.178
998.043
1000.24
1004.69
1011.64
454.253
2.40587
0.209795
0.072127
0.05712
0.0533476
0.0464419
0.0373303
0.0269463
0.0161423
0.00588467
-0.00334849
-0.0113698
-0.018078
-0.0235069
-0.0277993
-0.0311254
-0.0336263
-0.0353969
-0.0364967
-0.0369702
-0.0368638
-0.0362349
-0.0351521
-0.03369
-0.0319226
-0.0299181
-0.0277363
-0.0254266
-0.023028
-0.0205687
-0.0180668
-0.0155313
-0.0129619
-0.0103469
-0.00765913
-0.00485304
-0.00187286
)
;
    }
    rightWall
    {
        type            fixedFluxPressure;
        gradient        uniform 0;
        value           nonuniform List<scalar> 
50
(
382.793
381.953
380.305
375.066
298.418
122.387
117.522
117.045
114.922
108.492
102.854
102.044
89.8073
28.0354
23.9132
17.7499
2.74607
1.00697
0.958308
0.906822
0.84169
0.763361
0.684151
0.62997
0.63717
1.6744
9.77915
12.1225
12.4844
12.8937
13.2881
13.6063
13.782
12.4519
3.39948
0.140013
0.0447044
0.099614
0.130061
0.14485
0.150017
0.149671
0.201448
0.324038
0.330641
0.26607
0.208798
0.274189
0.219202
0.103707
)
;
    }
    lowerWall
    {
        type            fixedFluxPressure;
        gradient        uniform 0;
        value           nonuniform List<scalar> 
62
(
990.788
985.279
978.17
969.459
959.896
949.749
939.308
928.845
918.575
908.607
898.921
889.357
879.711
869.953
860.125
850.255
841.638
832.516
820.445
804.059
784.755
771.729
767.494
767.494
765.979
762.572
757.445
751.207
744.654
738.602
731.677
631.684
637.221
661.387
687.363
892.157
903.507
945.661
962.745
961.702
948.037
923.259
887.898
892.157
883.296
841.906
761.596
692.356
650.961
627.489
610.223
599.367
608.854
642.907
663.247
636.701
576.516
508.781
451.656
411.82
386.176
382.793
)
;
    }
    atmosphere
    {
        type            totalPressure;
        rho             rho;
        psi             none;
        gamma           1;
        p0              uniform 0;
        value           nonuniform List<scalar> 
46
(
0
0
0
0
0
0
0
0
0
0
0
0
0
-3.94108e-05
-0.000160364
-0.000391062
-0.000727978
-0.00115978
-0.00167015
-0.00223612
-0.00282679
-0.0034038
-0.00392435
-0.00423535
-0.00441414
-0.00456899
-0.00469353
-0.00483621
-0.00474845
-0.00433184
-0.00361698
-0.00270116
-0.00172329
-0.000825719
-0.000186212
0
0
0
0
0
0
0
0
-0.000681148
-0.000449755
0
)
;
    }
    defaultFaces
    {
        type            empty;
    }
}


// ************************************************************************* //
