/*--------------------------------*- C++ -*----------------------------------*\
| =========                 |                                                 |
| \\      /  F ield         | OpenFOAM: The Open Source CFD Toolbox           |
|  \\    /   O peration     | Version:  v2012                                 |
|   \\  /    A nd           | Website:  www.openfoam.com                      |
|    \\/     M anipulation  |                                                 |
\*---------------------------------------------------------------------------*/
FoamFile
{
    version     2.0;
    format      ascii;
    class       surfaceScalarField;
    location    "0.95";
    object      phi;
}
// * * * * * * * * * * * * * * * * * * * * * * * * * * * * * * * * * * * * * //

dimensions      [0 3 -1 0 0 0 0];
oriented        oriented;


internalField   nonuniform List<scalar> 
4432
(
-1.79042e-06
1.79042e-06
-4.88275e-06
3.09233e-06
-7.65673e-06
2.77398e-06
-1.01813e-05
2.52457e-06
-1.26458e-05
2.46445e-06
-1.509e-05
2.44427e-06
-1.74675e-05
2.37753e-06
-1.97041e-05
2.23661e-06
-2.17235e-05
2.01936e-06
-2.34465e-05
1.723e-06
-2.47791e-05
1.3326e-06
-2.55941e-05
8.1503e-07
-2.57102e-05
1.16058e-07
-2.49798e-05
-7.30332e-07
-2.33101e-05
-1.66978e-06
-2.06073e-05
-2.70276e-06
-1.66006e-05
-4.00672e-06
-1.12153e-05
-5.3853e-06
-4.93018e-06
-6.2851e-06
9.45697e-07
-5.87587e-06
4.78437e-06
-3.83867e-06
4.586e-06
1.98375e-07
4.586e-06
-3.46539e-06
5.25581e-06
-6.76606e-06
6.39301e-06
-9.6268e-06
5.63471e-06
-1.23127e-05
5.21046e-06
-1.49446e-05
5.09638e-06
-1.74798e-05
4.97946e-06
-1.98461e-05
4.7438e-06
-2.19754e-05
4.36599e-06
-2.38017e-05
3.84566e-06
-2.52478e-05
3.16904e-06
-2.6224e-05
2.30886e-06
-2.66488e-05
1.2398e-06
-2.64868e-05
-4.59102e-08
-2.56651e-05
-1.5521e-06
-2.4016e-05
-3.31887e-06
-2.12829e-05
-5.43582e-06
-1.73183e-05
-7.97131e-06
-1.21655e-05
-1.05381e-05
-6.28791e-06
-1.21627e-05
-6.39232e-07
-1.15246e-05
3.2785e-06
-7.75638e-06
3.93649e-06
-4.59634e-07
8.52251e-06
-3.92722e-06
9.18303e-06
-6.95972e-06
9.42551e-06
-9.73201e-06
8.407e-06
-1.24346e-05
7.91306e-06
-1.507e-05
7.7318e-06
-1.75826e-05
7.49204e-06
-1.99121e-05
7.07333e-06
-2.20063e-05
6.46022e-06
-2.38116e-05
5.65097e-06
-2.52613e-05
4.61867e-06
-2.62745e-05
3.32205e-06
-2.67705e-05
1.73582e-06
-2.66795e-05
-1.36864e-07
-2.592e-05
-2.31161e-06
-2.43551e-05
-4.88379e-06
-2.17834e-05
-8.00754e-06
-1.8044e-05
-1.17107e-05
-1.31705e-05
-1.54116e-05
-7.57976e-06
-1.77534e-05
-2.10451e-06
-1.69998e-05
1.97424e-06
-1.18351e-05
3.30224e-06
-1.78764e-06
1.18248e-05
-3.94447e-06
1.31275e-05
-6.85633e-06
1.23374e-05
-9.62911e-06
1.11798e-05
-1.23684e-05
1.06523e-05
-1.50254e-05
1.03888e-05
-1.75446e-05
1.00113e-05
-1.98763e-05
9.405e-06
-2.1978e-05
8.56195e-06
-2.38038e-05
7.47675e-06
-2.52918e-05
6.10669e-06
-2.63619e-05
4.39211e-06
-2.69282e-05
2.30214e-06
-2.69168e-05
-1.48287e-07
-2.62589e-05
-2.96952e-06
-2.48475e-05
-6.29517e-06
-2.25011e-05
-1.0354e-05
-1.90332e-05
-1.51786e-05
-1.44282e-05
-2.00167e-05
-9.03348e-06
-2.31481e-05
-3.59148e-06
-2.24418e-05
7.73482e-07
-1.62001e-05
2.73232e-06
-3.74649e-06
1.45571e-05
-3.81663e-06
1.69441e-05
-6.69805e-06
1.52188e-05
-9.50309e-06
1.39848e-05
-1.22801e-05
1.34293e-05
-1.49635e-05
1.30722e-05
-1.75005e-05
1.25483e-05
-1.98493e-05
1.17539e-05
-2.1976e-05
1.06886e-05
-2.38412e-05
9.34191e-06
-2.53867e-05
7.65225e-06
-2.6531e-05
5.53639e-06
-2.71835e-05
2.95463e-06
-2.72737e-05
-5.81124e-08
-2.67536e-05
-3.48956e-06
-2.55455e-05
-7.50332e-06
-2.34774e-05
-1.24221e-05
-2.03243e-05
-1.83316e-05
-1.60089e-05
-2.4332e-05
-1.0806e-05
-2.83511e-05
-5.3407e-06
-2.79071e-05
-5.76128e-07
-2.09646e-05
2.01094e-06
-6.33356e-06
1.6568e-05
-3.64956e-06
2.05937e-05
-6.52774e-06
1.80969e-05
-9.36609e-06
1.68232e-05
-1.21752e-05
1.62384e-05
-1.48852e-05
1.57822e-05
-1.74466e-05
1.51097e-05
-1.98248e-05
1.41321e-05
-2.19932e-05
1.2857e-05
-2.39189e-05
1.12676e-05
-2.55466e-05
9.27997e-06
-2.6791e-05
6.78079e-06
-2.75541e-05
3.71775e-06
-2.77693e-05
1.57018e-07
-2.74132e-05
-3.84564e-06
-2.64391e-05
-8.47738e-06
-2.46834e-05
-1.41779e-05
-2.18873e-05
-2.11277e-05
-1.79284e-05
-2.82909e-05
-1.3008e-05
-3.32715e-05
-7.57651e-06
-3.33385e-05
-2.388e-06
-2.61532e-05
9.03834e-07
-9.6254e-06
1.74719e-05
-3.47564e-06
2.40693e-05
-6.34521e-06
2.09665e-05
-9.20482e-06
1.96828e-05
-1.20372e-05
1.90707e-05
-1.47726e-05
1.85177e-05
-1.73654e-05
1.77025e-05
-1.97869e-05
1.65537e-05
-2.20171e-05
1.50871e-05
-2.40287e-05
1.32792e-05
-2.57686e-05
1.10199e-05
-2.71446e-05
8.15682e-06
-2.80459e-05
4.61901e-06
-2.84056e-05
5.16728e-07
-2.8225e-05
-4.02624e-06
-2.74883e-05
-9.21404e-06
-2.60463e-05
-1.56199e-05
-2.36375e-05
-2.35364e-05
-2.01411e-05
-3.17873e-05
-1.56826e-05
-3.773e-05
-1.04486e-05
-3.85725e-05
-4.85344e-06
-3.17483e-05
-6.64414e-07
-1.38144e-05
1.68074e-05
-3.29244e-06
2.73618e-05
-6.13404e-06
2.38081e-05
-8.99618e-06
2.25449e-05
-1.18404e-05
2.19149e-05
-1.45998e-05
2.12771e-05
-1.72327e-05
2.03354e-05
-1.9715e-05
1.90359e-05
-2.20308e-05
1.7403e-05
-2.41581e-05
1.54064e-05
-2.60451e-05
1.29068e-05
-2.75897e-05
9.70148e-06
-2.86606e-05
5.68993e-06
-2.91807e-05
1.03679e-06
-2.91706e-05
-4.03633e-06
-2.86382e-05
-9.74646e-06
-2.74675e-05
-1.67906e-05
-2.54502e-05
-2.55538e-05
-2.25296e-05
-3.47079e-05
-1.87689e-05
-4.14907e-05
-1.39928e-05
-4.33487e-05
-8.04018e-06
-3.77009e-05
-2.36563e-06
-1.9489e-05
1.44418e-05
5.03761e-06
-5.03761e-06
-1.02817e-05
1.53193e-05
-3.03248e-05
2.00431e-05
-4.72444e-05
1.69197e-05
-5.60274e-05
8.78302e-06
-5.70923e-05
1.06489e-06
-5.43069e-05
-2.78546e-06
-5.05826e-05
-3.72431e-06
-4.60868e-05
-4.49579e-06
-3.92292e-05
-6.8576e-06
-2.80398e-05
-1.11894e-05
-1.50229e-05
-1.30169e-05
-6.3653e-06
-8.6576e-06
-3.01378e-06
-3.35153e-06
-2.68044e-06
-3.33336e-07
-2.25458e-06
-4.25893e-07
-1.37796e-07
-2.11677e-06
2.55892e-06
-2.69672e-06
2.55892e-06
-9.73513e-06
4.69751e-06
-2.91002e-05
3.46844e-05
-4.66399e-05
3.75828e-05
-5.59605e-05
2.62403e-05
-5.77841e-05
1.06065e-05
-5.57047e-05
-1.01451e-06
-5.21887e-05
-6.30146e-06
-4.82691e-05
-7.64391e-06
-4.36893e-05
-9.07553e-06
-3.69023e-05
-1.36446e-05
-2.6547e-05
-2.15447e-05
-1.54535e-05
-2.41104e-05
-8.25196e-06
-1.58591e-05
-6.16568e-06
-5.43784e-06
-7.30317e-06
8.0417e-07
-8.40228e-06
6.73214e-07
-6.87439e-06
-3.64465e-06
-2.14053e-06
-7.4306e-06
4.18394e-07
-1.83212e-05
2.30187e-05
-3.56223e-05
5.19855e-05
-4.73956e-05
4.9356e-05
-5.33633e-05
3.2208e-05
-5.4556e-05
1.17992e-05
-5.20953e-05
-3.47528e-06
-4.79721e-05
-1.04246e-05
-4.41003e-05
-1.15157e-05
-3.99454e-05
-1.32304e-05
-3.33359e-05
-2.02542e-05
-2.28778e-05
-3.20028e-05
-1.23067e-05
-3.46815e-05
-6.07444e-06
-2.20914e-05
-5.70188e-06
-5.81042e-06
-9.06763e-06
4.16992e-06
-1.23739e-05
3.97945e-06
-1.25548e-05
-3.46376e-06
-7.81549e-06
-1.21699e-05
-7.39709e-06
-2.15559e-05
4.45746e-05
-3.5622e-05
6.60516e-05
-4.4097e-05
5.78311e-05
-4.95613e-05
3.76723e-05
-5.04127e-05
1.26507e-05
-4.56526e-05
-8.2354e-06
-3.95508e-05
-1.65265e-05
-3.63237e-05
-1.47428e-05
-3.43378e-05
-1.52163e-05
-2.84531e-05
-2.61388e-05
-1.70436e-05
-4.34123e-05
-6.5149e-06
-4.52102e-05
-7.83855e-07
-2.78224e-05
-1.57525e-06
-5.01903e-06
-7.21421e-06
9.8089e-06
-1.31852e-05
9.95042e-06
-1.57504e-05
-8.98595e-07
-1.20341e-05
-1.58861e-05
-1.94312e-05
-2.17818e-05
6.63564e-05
-3.25572e-05
7.6827e-05
-3.86557e-05
6.39295e-05
-4.41447e-05
4.31613e-05
-4.37798e-05
1.22857e-05
-3.27237e-05
-1.92915e-05
-2.17387e-05
-2.75115e-05
-1.93412e-05
-1.71403e-05
-2.32813e-05
-1.12762e-05
-2.05565e-05
-2.88636e-05
-7.45506e-06
-5.65137e-05
2.58153e-06
-5.52468e-05
7.7037e-06
-3.29446e-05
6.17809e-06
-3.49344e-06
-4.07513e-07
1.63945e-05
-7.94256e-06
1.74855e-05
-1.20463e-05
3.20517e-06
-1.06889e-05
-1.72435e-05
-3.01202e-05
-2.08663e-05
8.72227e-05
-2.83129e-05
8.42737e-05
-3.21699e-05
6.77865e-05
-3.88661e-05
4.98575e-05
-3.11473e-05
4.5669e-06
-1.77265e-05
-3.27122e-05
-5.85903e-06
-3.9379e-05
-4.72905e-07
-2.25265e-05
-5.94655e-06
-5.80251e-06
-6.03683e-06
-2.87734e-05
5.6312e-06
-6.81817e-05
1.55259e-05
-6.51415e-05
2.14537e-05
-3.88724e-05
2.01642e-05
-2.20396e-06
1.45783e-05
2.19804e-05
7.22806e-06
2.48358e-05
3.81824e-06
6.61502e-06
1.16914e-06
-1.45944e-05
-2.8951e-05
-2.02112e-05
0.000107434
-2.47785e-05
8.88409e-05
-2.78712e-05
7.08793e-05
-3.0497e-05
5.24833e-05
-2.11771e-05
-4.75302e-06
-1.29238e-05
-4.09656e-05
-4.33394e-06
-4.79689e-05
5.94489e-06
-3.28053e-05
4.5021e-06
-4.3597e-06
5.86629e-06
-3.01376e-05
1.33964e-05
-7.57118e-05
2.41829e-05
-7.5928e-05
3.63583e-05
-5.10478e-05
4.26368e-05
-8.48244e-06
3.51035e-05
2.95137e-05
2.70516e-05
3.28876e-05
2.54564e-05
8.2102e-06
1.66427e-05
-5.78067e-06
-1.23084e-05
-2.06995e-05
0.000128133
-2.31126e-05
9.1254e-05
-2.49414e-05
7.27081e-05
-2.30408e-05
5.05827e-05
-1.52659e-05
-1.25279e-05
-9.44502e-06
-4.67864e-05
-4.28451e-06
-5.31293e-05
4.87118e-06
-4.1961e-05
8.55216e-06
-8.04066e-06
1.29987e-05
-3.45841e-05
1.84975e-05
-8.12106e-05
2.76346e-05
-8.50651e-05
3.85783e-05
-6.19915e-05
4.97626e-05
-1.96668e-05
4.56021e-05
3.36741e-05
3.65165e-05
4.19733e-05
3.31891e-05
1.15375e-05
2.40088e-05
3.39955e-06
1.17004e-05
-6.18199e-06
3.35437e-05
-1.21517e-05
2.97778e-05
-1.81839e-05
2.85771e-05
-2.4231e-05
2.7962e-05
-3.01791e-05
2.72252e-05
-3.59531e-05
2.61094e-05
-4.15066e-05
2.45893e-05
-4.68114e-05
2.27077e-05
-5.18327e-05
2.04278e-05
-5.64746e-05
1.75487e-05
-6.04883e-05
1.37153e-05
-6.34926e-05
8.69418e-06
-6.52371e-05
2.78131e-06
-6.58148e-05
-3.45861e-06
-6.52134e-05
-1.03478e-05
-6.33404e-05
-1.86636e-05
-6.01004e-05
-2.87938e-05
-5.58188e-05
-3.89895e-05
-5.08554e-05
-4.64542e-05
-4.37557e-05
-5.04484e-05
-3.06594e-05
-5.07971e-05
-1.27269e-05
-3.74215e-05
-9.82086e-06
1.15358e-05
-4.62546e-06
3.81692e-05
-1.01224e-05
3.52747e-05
-1.5875e-05
3.43297e-05
-2.18071e-05
3.38942e-05
-2.78568e-05
3.32749e-05
-3.39747e-05
3.22273e-05
-4.01093e-05
3.07239e-05
-4.6204e-05
2.88025e-05
-5.22501e-05
2.64738e-05
-5.82243e-05
2.35228e-05
-6.39135e-05
1.94045e-05
-6.86405e-05
1.34212e-05
-7.18991e-05
6.03989e-06
-7.37086e-05
-1.64912e-06
-7.39361e-05
-1.01203e-05
-7.24752e-05
-2.01245e-05
-6.89765e-05
-3.22925e-05
-6.5271e-05
-4.2695e-05
-6.45969e-05
-4.71283e-05
-6.54341e-05
-4.96111e-05
-5.84473e-05
-5.7784e-05
-4.76375e-05
-4.82313e-05
-1.4946e-05
-4.25124e-05
-2.37271e-06
4.05419e-05
-6.78231e-06
3.96843e-05
-1.17534e-05
3.93008e-05
-1.73694e-05
3.95102e-05
-2.36045e-05
3.95099e-05
-3.03779e-05
3.90008e-05
-3.74216e-05
3.77675e-05
-4.4647e-05
3.60279e-05
-5.21141e-05
3.3941e-05
-6.00305e-05
3.14392e-05
-6.86258e-05
2.79999e-05
-7.68571e-05
2.16524e-05
-8.41295e-05
1.33123e-05
-8.98606e-05
4.08201e-06
-9.33868e-05
-6.59411e-06
-9.09544e-05
-2.2557e-05
-8.05463e-05
-4.27006e-05
-6.83411e-05
-5.49001e-05
-6.80705e-05
-4.73989e-05
-7.96196e-05
-3.80621e-05
-8.41813e-05
-5.32223e-05
-8.47453e-05
-4.76672e-05
-9.81086e-06
-8.98804e-05
3.08242e-07
4.02337e-05
-1.7597e-06
4.17522e-05
-5.25135e-06
4.27925e-05
-1.02099e-05
4.44687e-05
-1.67293e-05
4.60294e-05
-2.46913e-05
4.69627e-05
-3.30644e-05
4.61407e-05
-4.17397e-05
4.47032e-05
-5.09725e-05
4.31738e-05
-6.14809e-05
4.19476e-05
-7.52892e-05
4.18082e-05
-9.13864e-05
3.77496e-05
-0.000109327
3.12526e-05
-0.000127793
2.25481e-05
-0.000142775
8.38859e-06
-0.000146076
-1.92562e-05
-0.000133641
-5.51362e-05
-0.000109052
-7.94892e-05
-8.59407e-05
-7.05096e-05
-8.01416e-05
-4.38611e-05
-9.79594e-05
-3.54046e-05
-9.86526e-05
-4.6974e-05
-1.09383e-05
-9.75251e-05
3.94218e-06
3.62915e-05
4.7015e-06
4.09929e-05
2.27158e-06
4.52224e-05
-2.05021e-06
4.87905e-05
-9.93205e-06
5.39112e-05
-2.11209e-05
5.81516e-05
-3.12823e-05
5.63021e-05
-4.05576e-05
5.39784e-05
-5.04635e-05
5.30798e-05
-6.32241e-05
5.47082e-05
-8.25673e-05
6.11514e-05
-0.000114604
6.97864e-05
-0.000160086
7.67345e-05
-0.000199984
6.24465e-05
-0.000208577
1.69813e-05
-0.000198347
-2.94867e-05
-0.000182615
-7.08674e-05
-0.000164332
-9.77728e-05
-0.000132362
-0.00010248
-9.71096e-05
-7.91134e-05
-8.92694e-05
-4.32448e-05
-0.000103579
-3.26645e-05
-2.88581e-05
-8.56592e-05
-4.35051e-06
4.0642e-05
1.9912e-06
3.46512e-05
-1.20098e-06
4.84146e-05
-8.67956e-06
5.62691e-05
-1.91375e-05
6.43691e-05
-3.08068e-05
6.98209e-05
-4.30014e-05
6.84968e-05
-5.67198e-05
6.76969e-05
-7.49115e-05
7.12714e-05
-0.000101428
8.12243e-05
-0.000137712
9.7436e-05
-0.000180174
0.000112248
-0.000214527
0.000111087
-0.000226818
7.47374e-05
-0.000221407
1.15705e-05
-0.000210201
-4.06931e-05
-0.000198448
-8.26202e-05
-0.000188457
-0.000107764
-0.000175527
-0.00011541
-0.000148727
-0.000105913
-0.000117784
-7.41877e-05
-9.85531e-05
-5.18959e-05
-3.38983e-05
-9.35128e-05
-6.28461e-06
4.69266e-05
-1.50691e-05
4.34356e-05
-2.24759e-05
5.58213e-05
-3.09384e-05
6.47315e-05
-3.81632e-05
7.15939e-05
-4.37823e-05
7.54402e-05
-5.17491e-05
7.64635e-05
-6.32688e-05
7.92166e-05
-7.90037e-05
8.70063e-05
-9.94669e-05
0.000101688
-0.000123328
0.000121297
-0.000147402
0.000136322
-0.000167358
0.000131043
-0.000182957
9.03362e-05
-0.00019487
2.3483e-05
-0.000197458
-3.81053e-05
-0.00019653
-8.35474e-05
-0.000193935
-0.00011036
-0.000191161
-0.000118184
-0.000184747
-0.000112326
-0.000164049
-9.48861e-05
-0.000143783
-7.21621e-05
-6.02481e-05
-0.000117433
-9.14203e-06
5.60686e-05
-2.07616e-05
5.5055e-05
-2.92631e-05
6.43227e-05
-3.54294e-05
7.08977e-05
-3.9607e-05
7.57716e-05
-4.32401e-05
7.90733e-05
-4.88392e-05
8.20625e-05
-5.69818e-05
8.73592e-05
-6.73e-05
9.73245e-05
-7.87302e-05
0.000113118
-8.95517e-05
0.000132119
-9.87922e-05
0.000145562
-0.000107752
0.000140003
-0.000122054
0.000104638
-0.000144116
4.55457e-05
-0.000167448
-1.47735e-05
-0.000185999
-6.49968e-05
-0.000190202
-0.000106156
-0.00019158
-0.000116806
-0.000191469
-0.000112438
-0.000187721
-9.86336e-05
-0.000180944
-7.8939e-05
-5.72077e-05
-0.000183985
-7.82403e-06
6.38926e-05
-1.80851e-05
6.53159e-05
-2.4365e-05
7.06026e-05
-2.84073e-05
7.49399e-05
-3.12728e-05
7.86371e-05
-3.41956e-05
8.1996e-05
-3.81559e-05
8.6023e-05
-4.31372e-05
9.23404e-05
-4.83036e-05
0.000102491
-5.22139e-05
0.000117028
-5.37129e-05
0.000133617
-5.35016e-05
0.000145351
-5.5477e-05
0.000141978
-6.64613e-05
0.000115622
-9.11439e-05
7.02283e-05
-0.000125018
1.91004e-05
-0.000155
-3.50147e-05
-0.00017851
-8.26458e-05
-0.000183173
-0.000112143
-0.000183449
-0.000112162
-0.000180036
-0.000102046
-0.000171528
-8.74467e-05
-7.27257e-05
-0.00015601
-4.92797e-06
6.88205e-05
-1.15501e-05
7.19378e-05
-1.57605e-05
7.48127e-05
-1.84655e-05
7.76449e-05
-2.04683e-05
8.06399e-05
-2.24418e-05
8.39692e-05
-2.46867e-05
8.8268e-05
-2.68679e-05
9.45215e-05
-2.80305e-05
0.000103654
-2.68328e-05
0.000115831
-2.24485e-05
0.000129233
-1.60798e-05
0.000138982
-1.20391e-05
0.000137938
-1.67575e-05
0.000120341
-3.38625e-05
8.73333e-05
-6.12704e-05
4.65081e-05
-9.86874e-05
2.40231e-06
-0.000138014
-4.33193e-05
-0.000165356
-8.48018e-05
-0.000168534
-0.000108984
-0.000164905
-0.000105675
-0.000156439
-9.59123e-05
-8.56534e-05
-0.000143511
-2.40628e-06
7.12267e-05
-5.73049e-06
7.52619e-05
-7.95412e-06
7.70362e-05
-9.342e-06
7.90328e-05
-1.02454e-05
8.15433e-05
-1.0937e-05
8.46609e-05
-1.14081e-05
8.87389e-05
-1.12191e-05
9.43324e-05
-9.49147e-06
0.000101926
-5.12655e-06
0.000111465
2.50245e-06
0.000121604
1.23695e-05
0.000129115
2.09842e-05
0.000129323
2.30764e-05
0.000118248
1.48938e-05
9.55158e-05
-3.40771e-06
6.48097e-05
-3.1131e-05
3.01255e-05
-6.87596e-05
-5.69069e-06
-0.00011163
-4.19317e-05
-0.000142335
-7.8278e-05
-0.000149948
-9.80626e-05
-0.000141742
-0.000104118
-9.58494e-05
-0.000131546
-5.91387e-07
7.18179e-05
-1.627e-06
7.62972e-05
-2.10866e-06
7.75178e-05
-2.11269e-06
7.90367e-05
-1.7348e-06
8.11654e-05
-1.02178e-06
8.3948e-05
1.66801e-07
8.75502e-05
2.27028e-06
9.2229e-05
6.00702e-06
9.81899e-05
1.22031e-05
0.000105269
2.13071e-05
0.0001125
3.26279e-05
0.000117794
4.37323e-05
0.000118218
5.08284e-05
0.000111152
5.05345e-05
9.58097e-05
4.16382e-05
7.3706e-05
2.44298e-05
4.73338e-05
-1.70765e-07
1.89098e-05
-3.20059e-05
-1.00966e-05
-7.16085e-05
-3.86755e-05
-0.000107398
-6.22734e-05
-0.000127369
-8.41467e-05
-0.0001005
-0.000122718
6.47549e-07
7.11702e-05
1.10182e-06
7.58426e-05
1.98009e-06
7.66395e-05
3.21074e-06
7.78058e-05
4.80546e-06
7.95705e-05
6.81583e-06
8.19377e-05
9.42068e-06
8.49451e-05
1.29839e-05
8.86662e-05
1.80467e-05
9.31272e-05
2.51946e-05
9.81212e-05
3.47349e-05
0.00010296
4.62212e-05
0.000106308
5.80845e-05
0.000106355
6.78044e-05
0.000101432
7.28013e-05
9.08129e-05
7.14697e-05
7.50377e-05
6.33485e-05
5.54549e-05
4.86742e-05
3.35841e-05
2.78651e-05
1.07125e-05
1.1171e-06
-1.19274e-05
-2.88441e-05
-3.23123e-05
-6.32267e-05
-4.97642e-05
-6.8372e-05
-9.53545e-05
1.46969e-06
6.97004e-05
2.9472e-06
7.43648e-05
4.80013e-06
7.47865e-05
6.99494e-06
7.56109e-05
9.57817e-06
7.69873e-05
1.26328e-05
7.88831e-05
1.6318e-05
8.12597e-05
2.09059e-05
8.40786e-05
2.67723e-05
8.72608e-05
3.43054e-05
9.0588e-05
4.36988e-05
9.35663e-05
5.46653e-05
9.53421e-05
6.62205e-05
9.47999e-05
7.67569e-05
9.08958e-05
8.44925e-05
8.30772e-05
8.80387e-05
7.14914e-05
8.66713e-05
5.68224e-05
8.02807e-05
3.99746e-05
6.91804e-05
2.18127e-05
5.40835e-05
3.16944e-06
3.67025e-05
-1.49313e-05
1.96484e-05
-3.27101e-05
-5.18156e-05
3.09204e-06
2.01944e-06
6.76809e-05
4.20372e-06
7.21806e-05
6.74041e-06
7.22496e-05
9.62742e-06
7.27239e-05
1.29246e-05
7.36902e-05
1.67182e-05
7.50892e-05
2.11355e-05
7.68426e-05
2.63616e-05
7.88526e-05
3.26369e-05
8.09856e-05
4.01976e-05
8.30273e-05
4.91496e-05
8.46144e-05
5.92986e-05
8.51931e-05
7.00248e-05
8.40735e-05
8.03159e-05
8.06047e-05
8.89964e-05
7.43967e-05
9.50414e-05
6.54463e-05
9.77799e-05
5.40839e-05
9.69431e-05
4.08113e-05
9.26085e-05
2.61474e-05
8.51995e-05
1.05784e-05
7.56601e-05
-5.39195e-06
6.47665e-05
-2.18165e-05
-3.88697e-05
5.18206e-05
2.39904e-06
6.52815e-05
5.06626e-06
6.95134e-05
8.06771e-06
6.92478e-05
1.14178e-05
6.93739e-05
1.51787e-05
6.99295e-05
1.94304e-05
7.08372e-05
2.42702e-05
7.20032e-05
2.98171e-05
7.33058e-05
3.62109e-05
7.45917e-05
4.35784e-05
7.56599e-05
5.19595e-05
7.62333e-05
6.12103e-05
7.59422e-05
7.09306e-05
7.43532e-05
8.04764e-05
7.10589e-05
8.90798e-05
6.57932e-05
9.60211e-05
5.85051e-05
0.00010076
4.93446e-05
0.000102987
3.85847e-05
0.000102601
2.65337e-05
9.9685e-05
1.3494e-05
9.45127e-05
-2.19674e-07
8.70484e-05
-1.43522e-05
-2.84175e-05
7.65963e-05
2.66199e-06
6.26195e-05
5.65264e-06
6.65228e-05
8.95502e-06
6.59453e-05
1.25889e-05
6.57399e-05
1.66128e-05
6.59057e-05
2.10969e-05
6.63531e-05
2.6115e-05
6.69852e-05
3.17414e-05
6.76793e-05
3.80489e-05
6.8284e-05
4.50906e-05
6.86181e-05
5.28607e-05
6.84633e-05
6.12409e-05
6.7562e-05
6.99603e-05
6.56337e-05
7.85988e-05
6.24204e-05
8.66479e-05
5.77441e-05
9.36045e-05
5.15484e-05
9.90511e-05
4.3898e-05
0.000102691
3.49445e-05
0.000104342
2.48826e-05
0.000103906
1.39308e-05
0.000101325
2.36057e-06
9.64143e-05
-9.44118e-06
-2.07833e-05
8.87801e-05
2.83983e-06
5.97799e-05
6.0377e-06
6.33248e-05
9.51769e-06
6.24655e-05
1.32998e-05
6.19577e-05
1.74358e-05
6.17696e-05
2.19853e-05
6.18037e-05
2.70042e-05
6.19663e-05
3.2539e-05
6.21443e-05
3.86221e-05
6.22009e-05
4.52619e-05
6.19783e-05
5.24239e-05
6.13014e-05
6.00039e-05
5.9982e-05
6.78067e-05
5.7831e-05
7.55465e-05
5.46806e-05
8.28777e-05
5.04129e-05
8.94442e-05
4.49819e-05
9.49253e-05
3.84168e-05
9.90604e-05
3.08096e-05
0.000101646
2.22976e-05
0.000102513
1.3063e-05
0.000101505
3.36914e-06
9.8421e-05
-6.3573e-06
-1.53988e-05
9.30364e-05
2.95226e-06
5.68277e-05
6.27131e-06
6.00056e-05
9.83604e-06
5.89006e-05
1.36659e-05
5.81278e-05
1.78048e-05
5.76307e-05
2.2302e-05
5.73065e-05
2.72008e-05
5.70676e-05
3.25304e-05
5.68146e-05
3.83014e-05
5.643e-05
4.44986e-05
5.57812e-05
5.1073e-05
5.47269e-05
5.79301e-05
5.31249e-05
6.49202e-05
5.0841e-05
7.18385e-05
4.77622e-05
7.84413e-05
4.38101e-05
8.44706e-05
3.89528e-05
8.96796e-05
3.32079e-05
9.38481e-05
2.66411e-05
9.6783e-05
1.93628e-05
9.83074e-05
1.15386e-05
9.82509e-05
3.42566e-06
9.64474e-05
-4.55382e-06
-1.17325e-05
9.27812e-05
3.01317e-06
5.38144e-05
6.38829e-06
5.66306e-05
9.96825e-06
5.53204e-05
1.3772e-05
5.43241e-05
1.78366e-05
5.35662e-05
2.22024e-05
5.29408e-05
2.69029e-05
5.23671e-05
3.19576e-05
5.17599e-05
3.73658e-05
5.10217e-05
4.31028e-05
5.00442e-05
4.91156e-05
4.87142e-05
5.53188e-05
4.69217e-05
6.15919e-05
4.4568e-05
6.77806e-05
4.15735e-05
7.37052e-05
3.78856e-05
7.91732e-05
3.34849e-05
8.39931e-05
2.83881e-05
8.79835e-05
2.26508e-05
9.0975e-05
1.63714e-05
9.28078e-05
9.70582e-06
9.33328e-05
2.90068e-06
9.24287e-05
-3.64967e-06
-9.35621e-06
9.00524e-05
3.03424e-06
5.07802e-05
6.41492e-06
5.325e-05
9.95779e-06
5.17773e-05
1.36817e-05
5.06003e-05
1.76183e-05
4.96295e-05
2.18011e-05
4.8758e-05
2.62563e-05
4.79117e-05
3.09973e-05
4.70188e-05
3.6019e-05
4.6e-05
4.12945e-05
4.47686e-05
4.67733e-05
4.32354e-05
5.23802e-05
4.13149e-05
5.80157e-05
3.89325e-05
6.35587e-05
3.60306e-05
6.88709e-05
3.25735e-05
7.38044e-05
2.85514e-05
7.82086e-05
2.39838e-05
8.19362e-05
1.89232e-05
8.48453e-05
1.34623e-05
8.6802e-05
7.74916e-06
8.76877e-05
2.01514e-06
8.74217e-05
-3.38358e-06
-7.94199e-06
8.60075e-05
3.02474e-06
4.77555e-05
6.3714e-06
4.99033e-05
9.83724e-06
4.83114e-05
1.3442e-05
4.69957e-05
1.72142e-05
4.58571e-05
2.11819e-05
4.47902e-05
2.53661e-05
4.37275e-05
2.97762e-05
4.26087e-05
3.44058e-05
4.13703e-05
3.923e-05
3.99444e-05
4.4204e-05
3.82615e-05
4.92632e-05
3.62557e-05
5.43253e-05
3.38704e-05
5.92925e-05
3.10634e-05
6.40555e-05
2.78107e-05
6.84972e-05
2.41097e-05
7.2498e-05
1.99831e-05
7.59386e-05
1.54826e-05
7.87038e-05
1.06971e-05
8.06863e-05
5.76678e-06
8.17968e-05
9.04671e-07
8.19872e-05
-3.57391e-06
-7.24269e-06
8.12879e-05
2.99068e-06
4.47649e-05
6.27206e-06
4.66219e-05
9.63019e-06
4.49533e-05
1.30875e-05
4.35383e-05
1.66713e-05
4.22733e-05
2.04054e-05
4.10562e-05
2.43069e-05
3.9826e-05
2.83829e-05
3.85327e-05
3.26271e-05
3.71261e-05
3.7018e-05
3.55536e-05
4.15175e-05
3.3762e-05
4.60719e-05
3.17013e-05
5.06133e-05
2.9329e-05
5.50622e-05
2.66145e-05
5.93304e-05
2.35425e-05
6.3324e-05
2.01162e-05
6.69468e-05
1.63603e-05
7.01029e-05
1.23265e-05
7.27e-05
8.10005e-06
7.46546e-05
3.81215e-06
7.59027e-05
-3.43503e-07
7.64201e-05
-4.09125e-06
-7.074e-06
7.62513e-05
2.93462e-06
4.18303e-05
6.12555e-06
4.3431e-05
9.35258e-06
4.17263e-05
1.26427e-05
4.02481e-05
1.6023e-05
3.88932e-05
1.95144e-05
3.75649e-05
2.31311e-05
3.62093e-05
2.68787e-05
3.47851e-05
3.07517e-05
3.32532e-05
3.4732e-05
3.15734e-05
3.87884e-05
2.97056e-05
4.28771e-05
2.76125e-05
4.69428e-05
2.52632e-05
5.09211e-05
2.26362e-05
5.47405e-05
1.97232e-05
5.83253e-05
1.65315e-05
6.15979e-05
1.30878e-05
6.44812e-05
9.44313e-06
6.69024e-05
5.67876e-06
6.87981e-05
1.91648e-06
7.0124e-05
-1.66942e-06
7.08725e-05
-4.83983e-06
-7.2964e-06
7.10949e-05
2.85649e-06
3.89739e-05
5.93594e-06
4.03517e-05
9.01442e-06
3.86478e-05
1.21243e-05
3.71382e-05
1.52929e-05
3.57248e-05
1.85391e-05
3.43186e-05
2.18752e-05
3.28731e-05
2.53056e-05
3.13548e-05
2.88256e-05
2.97333e-05
3.24206e-05
2.79784e-05
3.60654e-05
2.60607e-05
3.97251e-05
2.39529e-05
4.33551e-05
2.16332e-05
4.69039e-05
1.90876e-05
5.03137e-05
1.63134e-05
5.35238e-05
1.33215e-05
5.64716e-05
1.014e-05
5.9096e-05
6.81874e-06
6.13399e-05
3.43479e-06
6.3156e-05
1.00445e-07
6.45151e-05
-3.02848e-06
6.54206e-05
-5.74531e-06
-7.80052e-06
6.59247e-05
2.75529e-06
3.62187e-05
5.70489e-06
3.74021e-05
8.62211e-06
3.57306e-05
1.15439e-05
3.42165e-05
1.44976e-05
3.2771e-05
1.7501e-05
3.13151e-05
2.05647e-05
2.98094e-05
2.36922e-05
2.82273e-05
2.68796e-05
2.65458e-05
3.01154e-05
2.47426e-05
3.33797e-05
2.27963e-05
3.66449e-05
2.06877e-05
3.98758e-05
1.84023e-05
4.30313e-05
1.59322e-05
4.60659e-05
1.3279e-05
4.89307e-05
1.04566e-05
5.15765e-05
7.49433e-06
5.39547e-05
4.44052e-06
5.60216e-05
1.36801e-06
5.77422e-05
-1.62014e-06
5.90988e-05
-4.38495e-06
6.01008e-05
-6.74729e-06
-8.49774e-06
6.0798e-05
2.63075e-06
3.35881e-05
5.43407e-06
3.45986e-05
8.18084e-06
3.29839e-05
1.09103e-05
3.14871e-05
1.36499e-05
3.00313e-05
1.64161e-05
2.85489e-05
1.92179e-05
2.70077e-05
2.20582e-05
2.5387e-05
2.49342e-05
2.36698e-05
2.78367e-05
2.18401e-05
3.07503e-05
1.98826e-05
3.36535e-05
1.77846e-05
3.65189e-05
1.5537e-05
3.93144e-05
1.31367e-05
4.20042e-05
1.05893e-05
4.45503e-05
7.9107e-06
4.69137e-05
5.13096e-06
4.90571e-05
2.29721e-06
5.09472e-05
-5.21985e-07
5.25592e-05
-3.23201e-06
5.38829e-05
-5.70865e-06
5.49313e-05
-7.79559e-06
-9.31559e-06
5.57492e-05
2.48452e-06
3.11035e-05
5.12694e-06
3.19561e-05
7.69655e-06
3.04145e-05
1.02324e-05
2.89513e-05
1.2761e-05
2.75026e-05
1.52971e-05
2.60128e-05
1.78486e-05
2.44563e-05
2.04181e-05
2.28176e-05
2.30033e-05
2.10846e-05
2.55974e-05
1.9246e-05
2.81886e-05
1.72916e-05
3.07603e-05
1.52131e-05
3.32915e-05
1.30059e-05
3.57574e-05
1.06709e-05
3.81305e-05
8.21621e-06
4.03815e-05
5.65981e-06
4.24805e-05
3.03204e-06
4.43991e-05
3.78699e-07
4.61129e-05
-2.2356e-06
4.76049e-05
-4.72396e-06
4.88705e-05
-6.97415e-06
4.99237e-05
-8.84872e-06
-1.01955e-05
5.08037e-05
2.32024e-06
2.87831e-05
4.78934e-06
2.94871e-05
7.17683e-06
2.80272e-05
9.51926e-06
2.66088e-05
1.18411e-05
2.51809e-05
1.41553e-05
2.36989e-05
1.64684e-05
2.21433e-05
1.87829e-05
2.05032e-05
2.10973e-05
1.87702e-05
2.34066e-05
1.69369e-05
2.57017e-05
1.49965e-05
2.79702e-05
1.29447e-05
3.01962e-05
1.07801e-05
3.23608e-05
8.50633e-06
3.44432e-05
6.13389e-06
3.64212e-05
3.68197e-06
3.82723e-05
1.18102e-06
3.99757e-05
-1.32458e-06
4.15142e-05
-3.77401e-06
4.28771e-05
-6.08672e-06
4.40635e-05
-8.16051e-06
4.50877e-05
-9.87292e-06
-1.1091e-05
4.59833e-05
2.14301e-06
2.664e-05
4.42896e-06
2.72012e-05
6.63081e-06
2.58253e-05
8.78086e-06
2.44587e-05
1.09005e-05
2.30614e-05
1.30007e-05
2.15988e-05
1.5087e-05
2.00569e-05
1.71617e-05
1.84284e-05
1.92241e-05
1.67079e-05
2.12704e-05
1.48906e-05
2.32941e-05
1.29729e-05
2.52859e-05
1.0953e-05
2.72338e-05
8.83227e-06
2.91236e-05
6.61658e-06
3.09396e-05
4.31793e-06
3.26654e-05
1.95632e-06
3.42846e-05
-4.37999e-07
3.57824e-05
-2.82236e-06
3.71477e-05
-5.13927e-06
3.83745e-05
-7.31349e-06
3.94651e-05
-9.25109e-06
4.04335e-05
-1.08414e-05
-1.19661e-05
4.13086e-05
1.95831e-06
2.46817e-05
4.05423e-06
2.51054e-05
6.06808e-06
2.38113e-05
8.02698e-06
2.24997e-05
9.94876e-06
2.11397e-05
1.18424e-05
1.97051e-05
1.37128e-05
1.81864e-05
1.55621e-05
1.65791e-05
1.73899e-05
1.48801e-05
1.91939e-05
1.30868e-05
2.09692e-05
1.11977e-05
2.2709e-05
9.21329e-06
2.44042e-05
7.1371e-06
2.60441e-05
4.97671e-06
2.7617e-05
2.7452e-06
2.91106e-05
4.62855e-07
3.05134e-05
-1.84073e-06
3.18159e-05
-4.1248e-06
3.30113e-05
-6.33475e-06
3.40978e-05
-8.4e-06
3.50801e-05
-1.02334e-05
3.59722e-05
-1.17335e-05
-1.27933e-05
3.67995e-05
1.7709e-06
2.29109e-05
3.67282e-06
2.32034e-05
5.49727e-06
2.19867e-05
7.26626e-06
2.07308e-05
8.99419e-06
1.94118e-05
1.06885e-05
1.80107e-05
1.23533e-05
1.65216e-05
1.39905e-05
1.4942e-05
1.56003e-05
1.32704e-05
1.71811e-05
1.1506e-05
1.87296e-05
9.64919e-06
2.02407e-05
7.70225e-06
2.17073e-05
5.67053e-06
2.3121e-05
3.56305e-06
2.44728e-05
1.39357e-06
2.57536e-05
-8.17837e-07
2.69558e-05
-3.04283e-06
2.80736e-05
-5.2426e-06
2.91042e-05
-7.36535e-06
3.00488e-05
-9.34463e-06
3.09144e-05
-1.1099e-05
3.17154e-05
-1.25345e-05
-1.35528e-05
3.2475e-05
1.584e-06
2.13269e-05
3.29038e-06
2.14969e-05
4.92495e-06
2.0352e-05
6.50553e-06
1.91502e-05
8.04375e-06
1.78735e-05
9.54571e-06
1.65087e-05
1.10148e-05
1.50526e-05
1.24527e-05
1.35042e-05
1.38599e-05
1.18633e-05
1.52357e-05
1.01304e-05
1.65777e-05
8.30716e-06
1.78821e-05
6.3979e-06
1.9143e-05
4.4097e-06
2.03531e-05
2.35298e-06
2.1505e-05
2.41821e-07
2.25919e-05
-1.90462e-06
2.3609e-05
-4.05984e-06
2.45536e-05
-6.18715e-06
2.54258e-05
-8.23758e-06
2.62297e-05
-1.01484e-05
2.6974e-05
-1.18433e-05
2.76741e-05
-1.32346e-05
-1.42309e-05
2.83523e-05
1.39888e-06
1.99279e-05
2.90992e-06
1.99857e-05
4.35527e-06
1.89066e-05
5.74991e-06
1.77556e-05
7.10334e-06
1.652e-05
8.42031e-06
1.51918e-05
9.70342e-06
1.37696e-05
1.09542e-05
1.22536e-05
1.21735e-05
1.06442e-05
1.33611e-05
8.94276e-06
1.45157e-05
7.15255e-06
1.56341e-05
5.27953e-06
1.67109e-05
3.33295e-06
1.7739e-05
1.325e-06
1.87112e-05
-7.30268e-07
1.96223e-05
-2.81565e-06
2.04697e-05
-4.90709e-06
2.1253e-05
-6.97042e-06
2.19749e-05
-8.95946e-06
2.26416e-05
-1.08151e-05
2.32638e-05
-1.24654e-05
2.38578e-05
-1.38285e-05
-1.48192e-05
2.44461e-05
1.21509e-06
1.87128e-05
2.53233e-06
1.86684e-05
3.79099e-06
1.76478e-05
5.00408e-06
1.65425e-05
6.17908e-06
1.5345e-05
7.31925e-06
1.40516e-05
8.42636e-06
1.26625e-05
9.50175e-06
1.11782e-05
1.05466e-05
9.59934e-06
1.15615e-05
7.92785e-06
1.2546e-05
6.16805e-06
1.34975e-05
4.32801e-06
1.44106e-05
2.41999e-06
1.52768e-05
4.58921e-07
1.60881e-05
-1.54153e-06
1.68403e-05
-3.5678e-06
1.75326e-05
-5.59927e-06
1.81668e-05
-7.60459e-06
1.87478e-05
-9.54029e-06
1.92833e-05
-1.13505e-05
1.97856e-05
-1.29676e-05
2.02721e-05
-1.4315e-05
-1.53134e-05
2.07663e-05
1.03141e-06
1.76813e-05
2.15809e-06
1.75417e-05
3.23561e-06
1.65703e-05
4.27443e-06
1.55036e-05
5.27945e-06
1.434e-05
6.25219e-06
1.30789e-05
7.19354e-06
1.17211e-05
8.10467e-06
1.0267e-05
8.98713e-06
8.71677e-06
9.84258e-06
7.07233e-06
1.06718e-05
5.33879e-06
1.14733e-05
3.52658e-06
1.2241e-05
1.65244e-06
1.29635e-05
-2.6348e-07
1.36306e-05
-2.20852e-06
1.42388e-05
-4.17586e-06
1.47893e-05
-6.14977e-06
1.52865e-05
-8.10167e-06
1.57366e-05
-9.99034e-06
1.61489e-05
-1.17627e-05
1.65365e-05
-1.33552e-05
1.69177e-05
-1.46962e-05
-1.57126e-05
1.73168e-05
8.47341e-07
1.6834e-05
1.79002e-06
1.65989e-05
2.69624e-06
1.5664e-05
3.57169e-06
1.46281e-05
4.41767e-06
1.34939e-05
5.23376e-06
1.22626e-05
6.01995e-06
1.09348e-05
6.7772e-06
9.50955e-06
7.50754e-06
7.98628e-06
8.21386e-06
6.36593e-06
8.89903e-06
4.65365e-06
9.56358e-06
2.86213e-06
1.02013e-05
1.01491e-06
1.07953e-05
-8.57363e-07
1.13309e-05
-2.744e-06
1.18064e-05
-4.65127e-06
1.22266e-05
-6.5699e-06
1.25981e-05
-8.47311e-06
1.29285e-05
-1.03207e-05
1.32274e-05
-1.20616e-05
1.35081e-05
-1.36359e-05
1.37889e-05
-1.49771e-05
-1.60181e-05
1.40943e-05
6.65245e-07
1.61687e-05
1.43623e-06
1.58278e-05
2.18644e-06
1.49138e-05
2.91334e-06
1.39011e-05
3.61387e-06
1.27932e-05
4.28574e-06
1.15906e-05
4.92806e-06