/*--------------------------------*- C++ -*----------------------------------*\
| =========                 |                                                 |
| \\      /  F ield         | OpenFOAM: The Open Source CFD Toolbox           |
|  \\    /   O peration     | Version:  v2012                                 |
|   \\  /    A nd           | Website:  www.openfoam.com                      |
|    \\/     M anipulation  |                                                 |
\*---------------------------------------------------------------------------*/
FoamFile
{
    version     2.0;
    format      ascii;
    class       volScalarField;
    location    "0.15";
    object      alpha.water;
}
// * * * * * * * * * * * * * * * * * * * * * * * * * * * * * * * * * * * * * //

dimensions      [0 0 0 0 0 0 0];


internalField   nonuniform List<scalar> 
2268
(
1
1
1
1
1
1
1
1
1
1
1
1
1
1
1
1
1
1
1
0.999853
0.999823
0.992646
0.748862
1
1
1
1
1
1
1
1
1
1
1
1
1
1
1
1
0.999999
0.999999
1
1
0.999555
0.999362
0.797227
1
1
1
1
1
1
1
1
1
1
1
1
1
1
1
1
1
1
1
1
0.9953
0.98602
0.942551
1
1
1
1
1
1
1
1
1
1
1
1
1
1
1
1
1
1
1
1
0.954515
0.767215
0.904249
1
1
1
1
1
1
1
1
1
1
1
1
1
1
1
1
1
1
0.999999
0.96132
0.692874
0.227607
0.794702
1
1
1
1
1
1
1
1
1
1
1
1
1
1
1
1
1
0.999999
0.998788
0.771528
0.245982
0.0248303
0.567791
1
1
1
1
1
1
1
1
1
1
1
1
1
1
1
1
1
0.999986
0.911466
0.424473
0.0356712
0.00797137
0.105118
1
1
1
1
1
1
1
1
1
1
1
1
1
1
1
1
0.999997
0.999785
0.672243
0.115694
0.00481504
0.00177105
0.00640633
3.04935e-17
3.03839e-17
1.60307e-17
4.15119e-18
3.47934e-19
9.30438e-21
2.63574e-22
1.29838e-23
6.9958e-25
3.24133e-26
1.26565e-27
4.22067e-29
1.18291e-30
2.69406e-32
4.74912e-34
5.98094e-36
4.66831e-38
1.41374e-40
4.76049e-41
2.43756e-16
1.72385e-15
1.55238e-15
5.06672e-16
3.70534e-17
7.86028e-19
1.7369e-20
6.17393e-22
2.51321e-23
9.59965e-25
3.27152e-26
9.71697e-28
2.4311e-29
4.90781e-31
7.53451e-33
7.99097e-35
4.86802e-37
1.10075e-39
4.76049e-41
1.49473e-14
9.33469e-14
9.08419e-14
4.11466e-14
2.70492e-15
4.20048e-17
6.64666e-19
1.63899e-20
4.89003e-22
1.49652e-23
4.31903e-25
1.11567e-26
2.45877e-28
4.38417e-30
5.8769e-32
5.15946e-34
2.91686e-36
9.25565e-39
5.62406e-40
2.54394e-13
1.67198e-12
6.11986e-12
3.22759e-12
1.5207e-13
1.4722e-15
1.72368e-17
3.31528e-19
7.76247e-21
1.91935e-22
4.60433e-24
1.01231e-25
1.92761e-27
2.95479e-29
3.41995e-31
3.15352e-33
2.10415e-35
7.30421e-38
7.70348e-39
7.93254e-13
2.0174e-11
2.13213e-10
4.47601e-11
1.38351e-12
1.32881e-14
1.9592e-16
4.19815e-18
9.41508e-20
2.05309e-21
4.2496e-23
8.03476e-25
1.30425e-26
1.82612e-28
2.197e-30
2.10945e-32
1.42858e-34
4.70726e-37
7.55854e-38
6.04256e-11
1.25889e-09
1.19065e-09
1.06637e-10
2.44264e-12
4.32041e-14
1.11536e-15
2.97316e-17
7.11262e-19
1.54649e-20
3.06774e-22
5.36265e-24
8.49759e-26
1.21526e-27
1.47098e-29
1.40008e-31
9.3448e-34
2.9392e-36
6.39485e-37
7.06995e-10
6.93056e-09
1.72156e-09
6.14825e-11
2.28963e-12
1.31272e-13
5.1598e-15
1.50354e-16
3.7888e-18
8.64391e-20
1.75517e-21
3.15001e-23
5.18466e-25
7.65089e-27
9.43713e-29
9.07424e-31
6.01461e-33
1.76151e-35
4.91962e-36
1.03718e-09
8.45251e-09
7.88011e-10
5.59841e-12
4.98502e-12
6.53988e-13
2.56966e-14
6.62975e-16
1.64012e-17
3.80948e-19
7.85803e-21
1.41006e-22
2.33455e-24
3.52848e-26
4.49281e-28
4.42572e-30
2.92166e-32
8.12699e-35
3.4136e-35
1
1
1
1
1
1
1
1
1
1
1
1
1
1
1
1
0.999975
0.848812
0.243614
0.00436832
0.00100072
0.000380799
0.00162705
1
1
1
1
1
1
1
1
1
1
1
1
1
1
1
0.999991
0.927582
0.304157
0.00444005
0.000830838
0.000171426
7.53145e-05
0.000399535
1
1
1
1
1
1
1
1
1
1
1
1
1
1
1
0.999855
0.480706
0.0120029
0.000762793
0.000174762
2.92952e-05
1.08424e-05
6.76245e-05
1
1
1
1
1
1
1
1
1
1
1
1
1
1
1.00001
0.740312
0.0801021
0.000980838
0.000140654
3.12347e-05
5.21107e-06
1.97517e-06
1.00253e-05
1
1
1
1
1
1
1
1
1
1
1
1
1
1
0.985278
0.291993
0.00187693
0.00019498
2.76537e-05
4.91173e-06
9.36174e-07
2.57705e-07
1.98071e-06
1
1
1
1
1
1
1
1
1
1
1
1
1
1
0.678356
0.0438757
0.000373829
3.39769e-05
4.62272e-06
7.21939e-07
1.44672e-07
5.21871e-08
2.26783e-07
1
1
1
1
1
1
1
1
1
1
1
1
1
0.999972
0.303252
0.00107048
7.34386e-05
5.67199e-06
6.98842e-07
1.00141e-07
1.91956e-08
1.11317e-08
5.14178e-08
1
1
1
1
1
1
1
1
1
1
1
1
1
0.783573
0.0719651
0.000220496
1.1265e-05
8.05434e-07
1.02208e-07
2.14145e-08
4.38063e-09
2.40514e-09
8.91805e-09
0.999999
0.999999
1
1
1
1
1
0.999999
0.999999
0.999999
0.999998
0.999997
0.999975
0.453207
0.00268515
3.58198e-05
1.37178e-06
1.39861e-07
4.98644e-08
1.99871e-08
2.69413e-09
1.45889e-09
2.31973e-09
0.999994
0.999994
0.999996
0.999997
0.999997
0.999997
0.999996
0.999995
0.999992
0.999985
0.999978
0.999976
0.978706
0.185996
0.000214782
5.44507e-06
2.04062e-07
9.5442e-08
8.96326e-08
2.16794e-08
2.51675e-09
1.33398e-09
1.27717e-09
0.999932
0.999939
0.999956
0.999965
0.999968
0.999966
0.99996
0.999945
0.999917
0.999864
0.999783
0.999775
0.752511
0.0518482
3.63856e-05
-9.11621e-08
2.05639e-08
1.38158e-07
4.93783e-08
1.29118e-08
2.30477e-09
1.1966e-09
6.56886e-10
0.999295
0.999404
0.999557
0.999643
0.999676
0.999661
0.999603
0.999473
0.999218
0.998766
0.998124
0.998011
0.499579
0.00675718
2.80276e-06
-2.29488e-09
2.87751e-09
7.32336e-08
8.31332e-09
3.30333e-09
1.73552e-09
8.92982e-10
4.71737e-10
0.898582
0.93724
0.963491
0.978949
0.985112
0.983951
0.976598
0.958044
0.920475
0.854117
0.770633
0.783303
0.225837
5.01527e-05
-5.3293e-07
2.87999e-10
2.48781e-09
3.61303e-09
1.43101e-09
9.88113e-10
9.2971e-10
4.83446e-10
2.11369e-10
0.201911
0.280142
0.347151
0.410877
0.446168
0.438501
0.399882
0.330214
0.244321
0.154881
0.0823176
0.0842725
0.0270981
3.15672e-05
-2.85664e-08
9.26832e-10
2.20962e-09
1.01038e-09
8.87021e-10
5.50861e-10
3.87683e-10
1.79408e-10
5.40398e-11
-1.50237e-13
-2.6897e-13
-1.0679e-12
-1.18917e-07
-3.57782e-08
-1.03401e-09
-3.31182e-10
-9.84253e-11
-1.2876e-11
-1.49376e-27
1.04112e-11
4.90531e-10
1.29615e-08
0.000290569
-3.17399e-08
1.44498e-09
2.88479e-09
1.77987e-09
5.1656e-10
2.85266e-10
1.3669e-10
4.54422e-11
8.95144e-12
-4.07404e-13
-1.88727e-12
-5.77039e-12
-1.98213e-09
-7.45269e-09
-6.15308e-09
-2.95575e-09
-8.53352e-10
-1.00083e-10
-3.23452e-21
3.9483e-10
3.6545e-08
8.27596e-06
8.84513e-05
0
1.98157e-09
2.88479e-09
1.50364e-09
2.36813e-10
1.13223e-10
3.65405e-11
7.83754e-12
1.03559e-12
-6.32158e-13
-3.3329e-12
-8.7932e-12
-2.60164e-09
-1.03008e-08
-8.25886e-09
-3.7397e-09
-9.52747e-10
-4.03776e-11
-3.24448e-12
2.29453e-10
7.47496e-07
5.96361e-06
2.75974e-11
1.33789e-10
1.50133e-09
2.10049e-09
5.61606e-10
8.39255e-11
3.06649e-11
6.47336e-12
9.41564e-13
9.31223e-14
-5.27486e-13
-2.9937e-12
-7.43017e-12
-1.48471e-09
-5.70768e-09
-4.39188e-09
-1.85595e-09
-4.19742e-10
-1.08487e-12
2.5998e-11
4.2304e-08
5.18733e-07
9.54206e-08
2.2449e-11
1.13682e-10
4.71801e-10
5.88667e-10
1.17987e-10
2.10177e-11
5.08713e-12
7.36671e-13
8.53354e-14
6.94075e-15
-1.8797e-13
-1.24431e-12
-3.23883e-12
-1.85072e-11
-5.30265e-11
-6.70767e-11
-4.28382e-11
-7.22495e-28
3.16532e-12
4.88464e-09
2.87161e-08
2.07493e-10
3.49612e-11
1.67998e-11
1.6299e-11
5.032e-11
5.65292e-11
1.75815e-11
3.11383e-12
4.9741e-13
5.90195e-14
6.32412e-15
4.3195e-16
-1.375e-19
-3.72416e-18
-5.66947e-17
-4.67841e-16
-1.55521e-15
0
0
1.54557e-13
1.25983e-10
4.1266e-09
9.96955e-09
7.94768e-09
6.99854e-09
1.45418e-09
8.78511e-14
3.07209e-12
3.43389e-12
1.51755e-12
2.46749e-13
3.11484e-14
3.74583e-15
3.91675e-16
2.19988e-17
-1.59322e-19
-4.9578e-18
-7.80665e-17
-7.17455e-16
-3.73371e-15
-6.01922e-15
-8.40708e-19
-7.26758e-14
-8.30197e-14
4.62151e-10
1.15826e-08
2.10952e-08
2.10483e-08
8.29173e-09
7.8226e-14
1.75991e-13
1.94184e-13
6.25533e-14
1.06756e-14
1.44663e-15
1.95206e-16
1.98942e-17
8.91102e-19
-1.01837e-19
-3.47801e-18
-6.00299e-17
-6.54202e-16
-4.88603e-15
-2.5966e-14
-9.9834e-14
-2.78176e-13
-5.53633e-13
-7.60406e-13
-6.79068e-13
-3.33052e-13
-4.42293e-14
7.05618e-31
7.82405e-14
1.22687e-14
6.72771e-15
1.57975e-15
2.71647e-16
5.23086e-17
7.97151e-18
8.04252e-19
2.71541e-20
-2.51844e-21
-6.4648e-20
-7.98561e-19
-5.93618e-18
-2.78643e-17
-7.74292e-17
-7.9156e-17
2.747e-17
4.1404e-15
2.81436e-14
5.35244e-14
5.83256e-14
4.92608e-14
1.16876e-14
1.70848e-15
5.51291e-16
1.95565e-16
4.06536e-17
5.02835e-18
1.43499e-18
2.41573e-19
2.43912e-20
5.67772e-22
-1.05846e-23
-1.97833e-22
-1.61485e-21
-6.81506e-21
-1.24037e-20
-8.44998e-29
1.47118e-21
2.23107e-19
6.48188e-17
9.72819e-16
3.68993e-15
6.02046e-15
2.63568e-15
5.10758e-16
9.09153e-17
3.37103e-17
6.45669e-18
1.1269e-18
1.3758e-19
3.60457e-20
6.06197e-21
5.41235e-22
1.01275e-23
-9.79163e-48
6.26665e-46
-1.91034e-33
-3.26805e-31
-2.79847e-29
2.17184e-26
-9.67774e-24
2.79184e-21
6.72887e-19
8.77524e-18
2.94208e-17
4.37316e-17
4.41765e-17
1.45128e-17
3.47109e-18
1.35126e-18
2.07095e-19
3.45045e-20
6.83005e-21
1.23153e-21
1.81931e-22
1.29607e-23
2.71029e-25
0
-4.31437e-36
-2.39399e-34
-3.07102e-32
-2.1167e-30
-3.2005e-27
-7.60152e-26
1.09191e-25
1.5827e-22
1.36912e-20
1.68451e-19
5.79276e-19
8.75922e-19
8.82182e-19
2.43912e-19
2.36598e-20
1.11655e-20
1.11994e-21
3.5095e-22
5.23418e-23
7.46988e-24
6.07225e-25
1.17028e-26
-1.47694e-35
-7.30079e-35
-6.28223e-35
-4.26466e-33
-2.17506e-31
3.65585e-32
1.35325e-30
3.04779e-29
2.19579e-25
4.83883e-23
9.95053e-22
4.77948e-21
8.7018e-21
9.51933e-21
3.78273e-21
7.18403e-22
3.63971e-22
3.885e-23
1.44702e-23
2.10671e-24
3.18957e-25
3.15519e-26
8.39438e-28
-2.27979e-57
-1.47833e-51
6.13603e-41
1.70814e-39
2.6212e-37
1.08438e-35
-6.99597e-33
-3.99693e-32
1.093e-29
1.61875e-26
9.11178e-25
1.0336e-23
3.56256e-23
5.61307e-23
5.91266e-23
2.39678e-23
5.32301e-24
1.92797e-24
3.30179e-25
7.49891e-26
1.17666e-26
1.25091e-27
4.23373e-29
-5.5659e-61
-5.39145e-46
-5.47244e-43
-9.73779e-42
-7.91605e-40
-5.19825e-37
-1.49882e-35
4.7489e-36
2.73846e-34
7.03841e-31
3.48355e-28
1.67182e-26
1.66514e-25
4.77457e-25
6.37314e-25
4.76166e-25
1.16646e-25
4.81962e-26
6.75526e-27
2.20416e-27
3.63359e-28
4.042e-29
1.62186e-30
-8.20522e-48
-6.33746e-48
-2.38494e-46
-2.1763e-44
-1.39183e-42
9.98169e-43
5.09142e-41
1.44762e-39
1.43021e-37
1.29456e-35
2.62055e-32
3.28374e-30
1.30024e-28
1.26444e-27
3.72952e-27
5.09028e-27
3.96663e-27
6.13744e-28
1.46511e-28
4.86512e-29
9.44048e-30
1.14348e-30
5.31549e-32
0
9.26192e-55
4.36942e-53
-4.85525e-51
9.28028e-49
4.42995e-47
-1.09362e-43
-1.51595e-42
1.96101e-41
1.23427e-39
3.17808e-36
9.99399e-34
1.01753e-31
2.89819e-30
1.849e-29
3.716e-29
3.9517e-29
1.17011e-29
2.64443e-30
7.97357e-31
2.06704e-31
2.80442e-32
1.52103e-33
0
-2.80097e-57
-4.65217e-55
-1.11008e-53
-1.30565e-51
-9.95401e-49
-3.80859e-47
1.17537e-46
1.03228e-44
4.88489e-43
5.47893e-41
9.78748e-38
8.93412e-36
7.82325e-34
2.30204e-32
1.50421e-31
2.90585e-31
2.82416e-31
3.32309e-32
1.09944e-32
3.74585e-33
5.90216e-34
3.79814e-35
-4.5111e-60
-4.8698e-60
-3.20867e-58
-4.09363e-56
-3.63172e-54
2.10419e-54
1.56773e-52
4.13153e-51
9.68863e-49
5.67517e-47
4.92814e-45
1.62775e-41
3.28848e-39
4.3913e-37
3.22883e-35
4.71929e-34
1.5668e-33
2.01067e-33
7.07271e-34
1.73048e-34
4.99751e-35
1.07356e-35
8.32691e-37
-3.7716e-81
7.24395e-67
1.19175e-64
2.12845e-62
3.60392e-60
3.55937e-58
-1.10038e-55
5.37297e-55
2.97029e-52
1.9002e-50
1.08849e-48
1.74459e-46
4.17929e-43
3.63136e-41
4.25633e-39
2.857e-37
3.85985e-36
1.18039e-35
1.38686e-35
1.98833e-36
5.77708e-37
1.66992e-37
1.61467e-38
3.28992e-74
-2.45174e-69
-2.16874e-67
-8.10789e-66
-1.40535e-63
-1.38371e-60
-7.63836e-59
1.94927e-58
2.65437e-56
2.04236e-54
1.4016e-52
8.97175e-51
2.41147e-48
9.28088e-45
1.40931e-42
2.42356e-40
8.7803e-39
5.20885e-38
8.45177e-38
3.15846e-38
8.50977e-39
2.11443e-39
2.78422e-40
-2.67692e-75
-1.91281e-73
-2.0445e-71
-3.97769e-69
-5.31616e-67
1.41406e-66
1.70078e-64
1.79929e-62
2.967e-60
2.68613e-58
2.20975e-56
1.69284e-54
1.74476e-52
6.97941e-49
1.75285e-46
3.28151e-44
4.1779e-42
9.34093e-41
3.8861e-40
5.21095e-40
9.01008e-41
2.36446e-41
4.34717e-42
2.82288e-83
3.15513e-80
9.75439e-78
3.20312e-75
7.36813e-73
1.2564e-70
1.79911e-68
2.19474e-66
5.27059e-64
5.78667e-62
5.87104e-60
5.63626e-58
5.11477e-56
5.11838e-54
1.20658e-50
4.03294e-48
1.4136e-45
1.33728e-43
1.51823e-42
3.26793e-42
1.09715e-42
3.93675e-43
5.78124e-44
9.67405e-89
-4.22304e-83
-6.22494e-81
-4.26702e-79
-1.22004e-76
-3.69336e-74
-2.15285e-71
2.74015e-71
6.83624e-69
1.05739e-66
1.38741e-64
1.72054e-62
2.04277e-60
2.32308e-58
3.20122e-56
6.45573e-52
8.47973e-49
1.85474e-46
4.00087e-45
1.26501e-44
1.32171e-44
4.652e-45
7.05675e-46
-2.29451e-90
-3.22984e-88
-5.66162e-86
-1.84523e-83
-4.38912e-81
-8.20811e-79
1.79887e-78
4.30386e-76
1.58908e-73
3.28664e-71
6.05744e-69
1.05318e-66
1.75009e-64
2.81232e-62
4.37859e-60
7.43105e-58
1.03643e-53
1.46845e-50
2.53063e-48
4.1792e-47
1.08515e-46
4.5502e-47
1.00643e-47
2.08395e-100
6.64472e-98
-5.75269e-94
-9.84908e-92
-3.87915e-90
-1.80259e-87
-2.50936e-85
-3.99477e-80
4.66519e-79
1.76569e-76
5.43576e-74
1.57456e-71
4.34951e-69
1.15943e-66
3.01333e-64
7.65542e-62
2.73182e-59
1.62329e-54
1.88027e-51
1.10426e-49
5.34779e-49
4.47655e-49
1.79194e-49
4.91082e-112
-4.00689e-101
-5.93124e-99
-8.26063e-97
-6.14958e-94
-3.62088e-91
-9.31355e-88
-1.06935e-91
1.89093e-88
4.87142e-85
6.68524e-82
6.18232e-79
5.22809e-76
4.1911e-73
3.24772e-70
2.46018e-67
1.82532e-64
9.11388e-60
6.33111e-55
1.62982e-52
2.11139e-51
3.27264e-51
2.84808e-51
-5.75662e-114
-2.43802e-112
-6.43646e-110
-7.97961e-107
-1.1068e-103
-1.5163e-100
-5.70115e-103
-5.93129e-100
-9.17164e-95
-1.74358e-94
-2.85332e-92
-2.96631e-89
-2.77569e-86
-2.37227e-83
-1.87655e-80
-1.38932e-77
-9.70876e-75
2.30612e-66
3.99616e-60
5.09785e-56
4.57842e-54
2.90579e-53
2.0601e-52
0.0027254
3.20987e-08
2.88825e-08
1.8606e-08
0.00610196
0.00131501
1.86935e-08
2.39041e-08
0.00283076
0.00288188
0.00100714
9.37658e-06
0.000109951
0.000778207
0.00127485
0.000953556
1.903e-05
2.17366e-05
0.000169468
0.000320825
2.80578e-06
3.31198e-06
3.35565e-06
3.09692e-06
4.16248e-07
3.70859e-07
4.36865e-07
3.66288e-07
5.22564e-08
5.21555e-08
4.78793e-08
4.01651e-08
6.2956e-09
6.00758e-09
5.36219e-09
4.13139e-09
9.32613e-10
7.50964e-10
6.10308e-10
4.67861e-10
3.33074e-10
2.08021e-10
1.39074e-10
9.07437e-11
2.1548e-10
1.17619e-10
6.71276e-11
3.80994e-11
7.61499e-11
3.55789e-11
1.6829e-11
7.6609e-12
1.32679e-11
5.23714e-12
2.05882e-12
7.68915e-13
1.4916e-12
5.3595e-13
1.8897e-13
6.52245e-14
1.321e-13
4.54935e-14
1.50158e-14
5.05371e-15
9.96108e-15
3.28322e-15
1.02837e-15
3.47206e-16
6.2069e-16
1.98732e-16
6.06903e-17
2.12816e-17
3.07686e-17
1.00744e-17
3.12521e-18
1.18669e-18
1.19286e-18
4.31246e-19
1.42958e-19
6.14543e-20
3.54669e-20
1.57532e-20
5.95819e-21
3.01755e-21
7.64326e-22
5.10732e-22
2.3612e-22
1.43146e-22
2.07177e-23
1.58387e-23
9.4024e-24
6.64919e-24
6.23419e-25
5.27957e-25
3.91708e-25
3.04597e-25
1.73891e-26
2.06218e-26
1.70212e-26
1.37143e-26
5.67875e-28
8.89822e-28
7.41821e-28
5.99468e-28
4.00603e-29
3.81254e-29
3.12288e-29
2.51986e-29
2.05057e-30
1.53699e-30
1.24618e-30
1.01613e-30
8.23545e-32
5.80403e-32
4.76565e-32
3.97048e-32
2.90509e-33
2.0629e-33
1.76917e-33
1.51744e-33
9.16541e-35
6.85932e-35
6.31354e-35
5.67411e-35
2.59094e-36
2.09989e-36
2.097e-36
2.05741e-36
6.72328e-38
5.82817e-38
6.38198e-38
6.75956e-38
1.57702e-39
1.42592e-39
1.78022e-39
2.01424e-39
3.31364e-41
3.12596e-41
4.54006e-41
5.42336e-41
6.43107e-43
6.70815e-43
1.15672e-42
1.39252e-42
1.11472e-44
1.36717e-44
2.83281e-44
3.59276e-44
1.7765e-46
2.5488e-46
6.1386e-46
8.75021e-46
2.60277e-48
4.76567e-48
1.15593e-47
1.98315e-47
3.91321e-50
7.98427e-50
1.90762e-49
4.0111e-49
7.07592e-52
1.01088e-51
2.42782e-51
6.25394e-51
4.17223e-52
5.56656e-52
5.71491e-52
6.76945e-52
7.46432e-09
5.20481e-09
1.56355e-09
1.86442e-11
1.36114e-11
2.67111e-12
1.48537e-13
4.44015e-15
1.24568e-16
3.47919e-18
8.82914e-20
1.94091e-21
3.5921e-23
5.32108e-25
6.09334e-27
5.6841e-29
3.84869e-31
1.02268e-33
2.18536e-34
4.03356e-07
2.73425e-07
3.96259e-08
1.06482e-10
8.21982e-12
4.93076e-12
6.3592e-13
2.61171e-14
7.54413e-16
2.17311e-17
6.00407e-19
1.47021e-20
3.08767e-22
5.41899e-24
7.65711e-26
8.18889e-28
5.7084e-30
1.28622e-32
1.88902e-33
9.01943e-07
6.72375e-07
6.48052e-08
1.57793e-09
7.98437e-11
4.08595e-12
9.12748e-13
5.81818e-14
1.3969e-15
3.61682e-17
9.80003e-19
2.43741e-20
5.39051e-22
1.03444e-23
1.66017e-25
2.11171e-27
1.94025e-29
9.8226e-32
6.03875e-33
0.000105398
1.99567e-06
1.59603e-07
9.5372e-09
4.45193e-10
2.25639e-11
9.26058e-13
1.0286e-13
3.20807e-15
6.47507e-17
1.38703e-18
2.88761e-20
5.71144e-22
1.03805e-23
1.64987e-25
2.15828e-27
2.13904e-29
1.37346e-31
3.90463e-33
0.000173058
1.31362e-06
1.08771e-07
6.8989e-09
3.45564e-10
1.85293e-11
9.71714e-13
9.33563e-14
2.77092e-15
5.79897e-17
1.20314e-18
2.33453e-20
4.2639e-22
7.28885e-24
1.13311e-25
1.51007e-27
1.58481e-29
1.12016e-31
1.31141e-33
2.124e-05
4.81576e-06
2.69753e-08
1.72029e-09
9.91381e-11
6.16601e-12
9.40053e-13
4.56279e-14
1.16932e-15
2.82233e-17
6.07259e-19
1.16839e-20
2.05118e-22
3.31305e-24
4.86222e-26
6.28941e-28
6.67315e-30
5.04004e-32
3.24222e-34
1.72694e-07
4.07063e-07
3.29363e-08
2.72915e-10
1.71573e-11
3.42752e-12
2.53397e-13
8.16849e-15
2.31895e-16
5.93155e-18
1.33593e-19
2.68689e-21
4.89109e-23
8.11124e-25
1.2149e-26
1.59126e-28
1.70362e-30
1.30819e-32
7.34123e-35
1.72813e-08
3.81279e-09
1.0624e-09
5.83016e-11
1.0129e-11
8.72622e-13
3.4838e-14
1.18872e-15
3.6232e-17
9.63803e-19
2.26802e-20
4.78604e-22
9.14876e-24
1.58741e-25
2.46867e-27
3.32359e-29
3.62236e-31
2.80575e-33
1.50917e-35
1.67101e-09
3.55003e-10
7.06132e-11
1.89803e-11
2.13536e-12
1.03893e-13
4.23228e-15
1.55442e-16
4.93274e-18
1.37049e-19
3.38528e-21
7.52696e-23
1.51736e-24
2.76749e-26
4.49396e-28
6.27152e-30
7.04669e-32
5.60914e-34
2.80503e-36
2.20427e-10
5.58938e-11
1.91922e-11
3.06601e-12
2.07361e-13
1.07071e-14
4.79144e-16
1.82581e-17
6.02259e-19
1.7493e-20
4.538e-22
1.06238e-23
2.25317e-25
4.30535e-27
7.28078e-29
1.05264e-30
1.22226e-32
1.00651e-34
4.70055e-37
4.41582e-11
1.71898e-11
3.06258e-12
2.71056e-13
1.86351e-14
1.0631e-15
4.97014e-17
1.9645e-18
6.73984e-20
2.04382e-21
5.5509e-23
1.36093e-24
3.01479e-26
5.98871e-28
1.04771e-29
1.56194e-31
1.86901e-33
1.58961e-35
7.07288e-38
1.48647e-11
2.72555e-12
2.83315e-13
2.40184e-14
1.72183e-15
1.0045e-16
4.83299e-18
1.97466e-19
7.02444e-21
2.21464e-22
6.26031e-24
1.59536e-25
3.66102e-27
7.50257e-29
1.34967e-30
2.06641e-32
2.5421e-34
2.22904e-36
9.77717e-39
2.11364e-12
2.51035e-13
2.52432e-14
2.16902e-15
1.54746e-16
9.09081e-18
4.46029e-19
1.87162e-20
6.86615e-22
2.23731e-23
6.53671e-25
1.71835e-26
4.05522e-28
8.52206e-30
1.56984e-31
2.46264e-33
3.11221e-35
2.81339e-37
1.26272e-39
1.77516e-13
2.17631e-14
2.20006e-15
1.87264e-16
1.32894e-17
7.84249e-19
3.90248e-20
1.67256e-21
6.29314e-23
2.10663e-24
6.32021e-26
1.70288e-27
4.10985e-29
8.82019e-31
1.6596e-32
2.6651e-34
3.46128e-36
3.22937e-38
1.50881e-40
1.47691e-14
1.77317e-15
1.78637e-16
1.51951e-17
1.07822e-18
6.39337e-20
3.21881e-21
1.40382e-22
5.39313e-24
1.84535e-25
5.65555e-27
1.55437e-28
3.82194e-30
8.35539e-32
1.60404e-33
2.63724e-35
3.52391e-37
3.399e-39
1.64997e-41
1.15765e-15
1.34418e-16
1.35358e-17
1.15199e-18
8.20059e-20
4.89347e-21
2.49048e-22
1.1027e-23
4.31132e-25
1.50226e-26
4.68584e-28
1.30954e-29
3.27301e-31
7.28021e-33
1.42587e-34
2.40242e-36
3.30842e-38
3.30568e-40
1.65772e-42
8.41704e-17
9.73266e-18
9.75546e-19
8.23705e-20
5.84875e-21
3.5007e-22
1.80147e-23
8.09074e-25
3.21237e-26
1.13703e-27
3.60119e-29
1.0215e-30
2.59242e-32
5.86597e-34
1.17296e-35
2.02843e-37
2.88511e-39
2.9928e-41
1.5471e-43
5.69052e-18
6.69969e-19
6.77863e-20
5.6969e-21
3.97796e-22
2.36357e-23
1.22093e-24
5.53749e-26
2.23113e-27
8.01534e-29
2.57464e-30
7.40682e-32
1.90843e-33
4.39544e-35
8.98535e-37
1.59811e-38
2.35348e-40
2.5404e-42
1.35363e-44
3.59567e-19
4.36677e-20
4.51437e-21
3.80566e-22
2.63719e-23
1.54962e-24
7.90188e-26
3.57751e-27
1.45346e-28
5.27345e-30
1.7174e-31
5.01346e-33
1.31252e-34
3.08068e-36
6.44989e-38
1.18263e-39
1.80808e-41
2.03549e-43
1.11739e-45
2.13274e-20
2.69788e-21
2.87178e-22
2.44376e-23
1.69637e-24
9.91679e-26
5.01815e-27
2.25634e-28
9.08908e-30
3.28996e-31
1.08096e-32
3.19065e-34
8.47548e-36
2.02989e-37
4.36313e-39
8.27067e-41
1.31651e-42
1.54908e-44
8.7429e-47
1.1925e-21
1.58221e-22
1.74496e-23
1.50853e-24
1.05533e-25
6.17497e-27
3.12449e-28
1.4008e-29
5.602e-31
2.02198e-32
6.61703e-34
1.9518e-35
5.22479e-37
1.27404e-38
2.81129e-40
5.51511e-42
9.15596e-44
1.12772e-45
6.53058e-48
6.31595e-23
8.82173e-24
1.01332e-24
8.95166e-26
6.34468e-27
3.73901e-28
1.90227e-29
8.54079e-31
3.41202e-32
1.23225e-33
4.01645e-35
1.18365e-36
3.18733e-38
7.86139e-40
1.76981e-41
3.57986e-43
6.189e-45
7.97907e-47
4.74468e-49
3.1859e-24
4.68727e-25
5.63062e-26
5.10666e-27
3.68493e-28
2.19894e-29
1.12992e-30
5.1051e-32
2.04849e-33
7.42251e-35
2.42059e-36
7.15299e-38
1.93994e-39
4.83631e-41
1.1095e-42
2.31128e-44
4.15705e-46
5.60715e-48
3.42308e-50
1.53636e-25
2.38126e-26
3.00029e-27
2.80459e-28
2.06891e-29
1.25527e-30
6.53883e-32
2.98502e-33
1.20769e-34
4.4046e-36
1.44365e-37
4.29253e-39
1.17419e-40
2.96414e-42
6.93968e-44
1.4897e-45
2.78698e-47
3.93139e-49
2.46112e-51
7.09723e-27
1.16107e-27
1.53753e-28
1.48637e-29
1.12483e-30
6.96245e-32
3.68778e-33
1.70592e-34
6.97792e-36
2.56875e-37
8.487e-39
2.5453e-40
7.03629e-42
1.80254e-43
4.31358e-45
9.54896e-47
1.85829e-48
2.74045e-50
1.75607e-52
3.14994e-28
5.45315e-29
7.60051e-30
7.62121e-31
5.93432e-32
3.75857e-33
2.02945e-34
9.53578e-36
3.95239e-37
1.47152e-38
4.91029e-40
1.48781e-41
4.16298e-43
1.0837e-44
2.653e-46
6.05835e-48
1.22624e-49
1.88947e-51
1.23681e-53
1.34903e-29
2.47472e-30
3.63445e-31
3.78984e-32
3.04446e-33
1.97821e-34
1.09133e-35
5.21988e-37
2.1967e-38
8.28529e-40
2.79675e-41
8.57265e-43
2.43027e-44
6.43317e-46
1.61163e-47
3.79629e-49
7.98857e-51
1.28508e-52
8.57583e-55
5.60034e-31
1.08785e-31
1.6854e-32
1.83195e-33
1.52186e-34
1.01679e-35
5.74269e-37
2.80148e-38
1.19915e-39
4.58893e-41
1.56927e-42
4.87169e-44
1.40034e-45
3.77128e-47
9.66952e-49
2.34898e-50
5.136e-52
8.61666e-54
5.85158e-56
2.24826e-32
4.64237e-33
7.59614e-34
8.62624e-35
7.42674e-36
5.11242e-37
2.96127e-38
1.47593e-39
6.43582e-41
2.50237e-42
8.68035e-44
2.73198e-45
7.96805e-47
2.18408e-48
5.73174e-50
1.43552e-51
3.25919e-53
5.69635e-55
3.92981e-57
8.67643e-34
1.92717e-34
3.33384e-35
3.96444e-36
3.54458e-37
2.51863e-38
1.49861e-39
7.6429e-41
3.3998e-42
1.34477e-43
4.73718e-45
1.51285e-46
4.47963e-48
1.25013e-49
3.35785e-51
8.66717e-53
2.04185e-54
3.71356e-56
2.59834e-58
3.21909e-35
7.79275e-36
1.42722e-36
1.78141e-37
1.65739e-38
1.21773e-39
7.45426e-41
3.89552e-42
1.76994e-43
7.12991e-45
2.55305e-46
8.27917e-48
2.49008e-49
7.07636e-51
1.94514e-52
5.17217e-54
1.26341e-55
2.38829e-57
1.6922e-59
1.1556e-36
3.07052e-37
5.96854e-38
7.83946e-39
7.60508e-40
5.78747e-41
3.65005e-42
1.95712e-43
9.09297e-45
3.73415e-46
1.3603e-47
4.48212e-49
1.36978e-50
3.96435e-52
1.11497e-53
3.05269e-55
7.72595e-57
1.51622e-58
1.08631e-60
4.05416e-38
1.17825e-38
2.44121e-39
3.38385e-40
3.43011e-41
2.70826e-42
1.76227e-43
9.70701e-45
4.6166e-46
1.93445e-47
7.17444e-49
2.40314e-50
7.46456e-52
2.20018e-53
6.32974e-55
1.78352e-56
4.67313e-58
9.51016e-60
6.88048e-62
1.39933e-39
4.39703e-40
9.77502e-41
1.43472e-41
1.52316e-42
1.24993e-43
8.40334e-45
4.76072e-46
2.31999e-47
9.92707e-49
3.7507e-50
1.2777e-51
4.03454e-53
1.21103e-54
3.56269e-56
1.03253e-57
2.7987e-59
5.89958e-61
4.30483e-63
4.66779e-41
1.59616e-41
3.83452e-42
5.98347e-43
6.67009e-44
5.69945e-45
3.96459e-46
2.31272e-47
1.15587e-48
5.0543e-50
1.94648e-51
6.74587e-53
2.16567e-54
6.61912e-56
1.99049e-57
5.93014e-59
1.66152e-60
3.62398e-62
2.66407e-64
1.40422e-42
5.65401e-43
1.47438e-43
2.45785e-44
2.88521e-45
2.57212e-46
1.85389e-47
1.11481e-48
5.71917e-50
2.55733e-51
1.00433e-52
3.54205e-54
1.15616e-55
3.59743e-57
1.10537e-58
3.38321e-60
9.79081e-62
2.2073e-63
1.63313e-65
3.78068e-44
1.95355e-44
5.55983e-45
9.95689e-46
1.23469e-46
1.15076e-47
8.60692e-49
5.34109e-50
2.81495e-51
1.28793e-52
5.16024e-54
1.85238e-55
6.14758e-57
1.94694e-58
6.10984e-60
1.91996e-61
5.73444e-63
1.33493e-64
9.93241e-67
9.64063e-46
6.56771e-46
2.05734e-46
3.98186e-47
5.23357e-48
5.11085e-49
3.9727e-50
2.54695e-51
1.38017e-52
6.46522e-54
2.64378e-55
9.66198e-57
3.2603e-58
1.05072e-59
3.36616e-61
1.08533e-62
3.34293e-64
8.02776e-66
6.00223e-68
2.3483e-47
2.15001e-47
7.47091e-48
1.5723e-48
2.1981e-49
2.25433e-50
1.82412e-51
1.20968e-52
6.74599e-54
3.2376e-55
1.3519e-56
5.03151e-58
1.72644e-59
5.66117e-61
1.85083e-62
6.11924e-64
1.94215e-65
4.80652e-67
3.61113e-69
5.65137e-49
6.71836e-49
2.66213e-49
6.12355e-50
9.13661e-51
9.86436e-52
8.32392e-53
5.71783e-54
3.28514e-55
1.61675e-56
6.89847e-58
2.61606e-59
9.13078e-61
3.04674e-62
1.01633e-63
3.44396e-65
1.12542e-66
2.86747e-68
2.14904e-70
1.23109e-50
1.74794e-50
8.805e-51
2.28565e-51
3.70363e-52
4.2551e-53
3.77204e-54
2.69855e-55
1.60323e-56
8.1047e-58
3.53892e-59
1.36916e-60
4.86609e-62
1.65369e-63
5.63197e-65
1.95655e-66
6.58146e-68
1.72492e-69
6.03666e-72
1.09255e-51
1.6556e-51
4.11123e-52
7.50116e-53
1.00987e-53
1.06337e-54
9.09179e-56
6.43154e-57
3.86227e-58
2.01696e-59
9.05719e-61
3.59054e-62
1.30456e-63
4.53199e-65
1.58145e-66
5.65228e-68
1.96378e-69
5.31505e-71
5.35413e-72
)
;

boundaryField
{
    leftWall
    {
        type            zeroGradient;
    }
    rightWall
    {
        type            zeroGradient;
    }
    lowerWall
    {
        type            zeroGradient;
    }
    atmosphere
    {
        type            inletOutlet;
        inletValue      uniform 0;
        value           nonuniform List<scalar> 
46
(
0
0
0
0
0
0
0
0
0
0
0
0
0
0
0
0
0
0
0
0
0
2.90579e-53
2.0601e-52
4.17223e-52
5.56656e-52
5.71491e-52
6.76945e-52
1.09255e-51
1.6556e-51
4.11123e-52
7.50116e-53
1.00987e-53
1.06337e-54
9.09179e-56
6.43154e-57
3.86227e-58
2.01696e-59
9.05719e-61
3.59054e-62
1.30456e-63
4.53199e-65
1.58145e-66
5.65228e-68
1.96378e-69
5.31505e-71
5.35413e-72
)
;
    }
    defaultFaces
    {
        type            empty;
    }
}


// ************************************************************************* //
