/*--------------------------------*- C++ -*----------------------------------*\
| =========                 |                                                 |
| \\      /  F ield         | OpenFOAM: The Open Source CFD Toolbox           |
|  \\    /   O peration     | Version:  v2012                                 |
|   \\  /    A nd           | Website:  www.openfoam.com                      |
|    \\/     M anipulation  |                                                 |
\*---------------------------------------------------------------------------*/
FoamFile
{
    version     2.0;
    format      ascii;
    class       surfaceScalarField;
    location    "0.15";
    object      alphaPhi0.water;
}
// * * * * * * * * * * * * * * * * * * * * * * * * * * * * * * * * * * * * * //

dimensions      [0 3 -1 0 0 0 0];
oriented        oriented;


internalField   nonuniform List<scalar> 
4432
(
9.59642e-07
-9.59642e-07
5.75009e-06
-4.79045e-06
1.21448e-05
-6.39469e-06
1.89861e-05
-6.84132e-06
2.60061e-05
-7.01999e-06
3.31683e-05
-7.16221e-06
4.04975e-05
-7.32921e-06
4.80504e-05
-7.55292e-06
5.5913e-05
-7.8625e-06
6.41936e-05
-8.28064e-06
7.30138e-05
-8.82024e-06
8.24937e-05
-9.47992e-06
9.2722e-05
-1.02282e-05
0.000103706
-1.0984e-05
0.000115296
-1.15899e-05
0.000127048
-1.17519e-05
0.000138004
-1.09563e-05
0.00014616
-8.15625e-06
0.000147196
-1.03572e-06
0.000135242
1.18836e-05
0.000107051
2.81079e-05
5.73764e-05
4.90264e-05
4.32789e-05
3.0518e-06
-4.01144e-06
8.48831e-06
-1.0227e-05
1.46296e-05
-1.2536e-05
2.10797e-05
-1.32914e-05
2.77381e-05
-1.36784e-05
3.45988e-05
-1.40229e-05
4.1693e-05
-1.44234e-05
4.9075e-05
-1.4935e-05
5.6818e-05
-1.56054e-05
6.50083e-05
-1.64709e-05
7.37351e-05
-1.75471e-05
8.30707e-05
-1.88155e-05
9.304e-05
-2.01976e-05
0.000103576
-2.15203e-05
0.000114455
-2.24681e-05
0.000125196
-2.2493e-05
0.000134894
-2.06547e-05
0.000142179
-1.54414e-05
0.000146319
-5.17538e-06
0.000146237
1.19657e-05
0.00013612
3.77502e-05
9.78297e-05
8.67603e-05
0.000146536
4.48526e-06
-8.49669e-06
1.0301e-05
-1.60428e-05
1.63305e-05
-1.85655e-05
2.25284e-05
-1.94892e-05
2.89156e-05
-2.00657e-05
3.55252e-05
-2.06324e-05
4.23992e-05
-2.12974e-05
4.95907e-05
-2.21266e-05
5.71629e-05
-2.31776e-05
6.51836e-05
-2.44916e-05
7.37141e-05
-2.60776e-05
8.27893e-05
-2.78907e-05
9.23893e-05
-2.97975e-05
0.000102399
-3.15299e-05
0.000112552
-3.26216e-05
0.000122365
-3.23058e-05
0.000131056
-2.93461e-05
0.000137588
-2.19726e-05
0.000141099
-8.6865e-06
0.000141718
1.1346e-05
0.000135938
4.09345e-05
0.0001019
0.000100174
0.000232313
5.31547e-06
-1.38122e-05
1.15247e-05
-2.2252e-05
1.75941e-05
-2.46349e-05
2.36676e-05
-2.55628e-05
2.98739e-05
-2.6272e-05
3.62917e-05
-2.70502e-05
4.29805e-05
-2.79862e-05
4.99968e-05
-2.91429e-05
5.7398e-05
-3.05789e-05
6.52382e-05
-3.23317e-05
7.35566e-05
-3.4396e-05
8.23594e-05
-3.66935e-05
9.15927e-05
-3.90308e-05
0.000101107
-4.10447e-05
0.000110614
-4.21284e-05
0.000119639
-4.13304e-05
0.000127518
-3.72248e-05
0.000133539
-2.79935e-05
0.000137315
-1.24631e-05
0.000138392
9.40527e-06
0.000120921
3.48518e-05
7.72392e-05
4.90115e-05
0.000266752
5.75868e-06
-1.95708e-05
1.23147e-05
-2.8808e-05
1.85045e-05
-3.08247e-05
2.45445e-05
-3.16028e-05
3.06411e-05
-3.23687e-05
3.69167e-05
-3.33258e-05
4.34511e-05
-3.45205e-05
5.03077e-05
-3.59996e-05
5.75421e-05
-3.78132e-05
6.51983e-05
-3.99879e-05
7.32989e-05
-4.24966e-05
8.18272e-05
-4.52217e-05
9.0703e-05
-4.79066e-05
9.97517e-05
-5.00934e-05
0.000108667
-5.10434e-05
0.000116986
-4.96495e-05
0.000124143
-4.43824e-05
0.000129703
-3.35533e-05
0.00013345
-1.62112e-05
0.00011481
5.8675e-06
5.89506e-05
1.43196e-05
3.0369e-05
6.46229e-06
0.000223231
6.006e-06
-2.55768e-05
1.28128e-05
-3.56147e-05
1.91308e-05
-3.71427e-05
2.51832e-05
-3.76552e-05
3.12184e-05
-3.84039e-05
3.73906e-05
-3.9498e-05
4.37973e-05
-4.09273e-05
5.05104e-05
-4.27126e-05
5.75852e-05
-4.48881e-05
6.50594e-05
-4.74621e-05
7.29427e-05
-5.03799e-05
8.12006e-05
-5.34797e-05
8.97327e-05
-5.64387e-05
9.83433e-05
-5.8704e-05
0.000106708
-5.94085e-05
0.000114366
-5.73071e-05
0.000120818
-5.08345e-05
0.000125842
-3.85775e-05
0.000120768
-2.00034e-05
6.08904e-05
2.28586e-06
1.38575e-05
5.5249e-07
1.18629e-05
3.25963e-06
5.84298e-05
6.16139e-06
-3.17382e-05
1.31092e-05
-4.25625e-05
1.95234e-05
-4.35569e-05
2.56014e-05
-4.37331e-05
3.16028e-05
-4.44053e-05
3.76992e-05
-4.55943e-05
4.40004e-05
-4.72285e-05
5.05849e-05
-4.92971e-05
5.75092e-05
-5.18124e-05
6.48066e-05
-5.47595e-05
7.24776e-05
-5.80509e-05
8.04747e-05
-6.14768e-05
8.86814e-05
-6.46454e-05
9.68838e-05
-6.69064e-05
0.000104735
-6.726e-05
0.000111753
-6.43248e-05
0.000117472
-5.65532e-05
0.000121309
-4.24195e-05
8.51625e-05
-2.16362e-05
1.35217e-05
4.47913e-07
3.15429e-06
7.61929e-07
3.29315e-06
1.4299e-06
3.86042e-06
6.24851e-06
-3.79867e-05
1.32455e-05
-4.95595e-05
1.97081e-05
-5.00195e-05
2.58035e-05
-4.98285e-05
3.17825e-05
-5.03844e-05
3.78197e-05
-5.16315e-05
4.40308e-05
-5.34397e-05
5.04984e-05
-5.57647e-05
5.72803e-05
-5.85942e-05
6.44069e-05
-6.18861e-05
7.18727e-05
-6.55167e-05
7.96212e-05
-6.92253e-05
8.75242e-05
-7.25485e-05
9.53513e-05
-7.47334e-05
0.000102725
-7.46335e-05
0.000109114
-7.07135e-05
0.000113945
-6.13862e-05
0.000109776
-4.18205e-05
3.53908e-05
-1.58406e-05
1.5469e-06
9.31261e-08
9.6813e-07
5.04238e-07
1.51076e-06
5.13376e-07
4.02985e-06
-2.88723e-22
2.88854e-22
-2.99347e-22
2.08263e-23
-1.06724e-22
-9.89276e-22
-1.95831e-24
-1.48524e-22
1.38053e-25
-7.4817e-24
4.32495e-27
-1.31268e-25
2.08558e-28
-2.26565e-27
1.30357e-29
-4.90733e-29
7.02478e-31
-8.05644e-31
2.8727e-32
6.07019e-33
9.39413e-34
8.25757e-34
2.4843e-35
4.34056e-35
5.14003e-37
1.59144e-36
7.83026e-39
4.37693e-38
7.94392e-41
8.85807e-40
4.44018e-43
1.21422e-41
8.64308e-46
9.37928e-44
4.3207e-47
2.17016e-46
7.32516e-48
-1.18577e-20
8.54792e-21
-2.72281e-20
3.75289e-21
-1.10932e-20
-4.56804e-20
-1.60578e-22
-2.86582e-20
1.37494e-23
-1.39934e-21
3.23566e-25
-2.16818e-23
1.16807e-26
-2.99741e-25
5.13095e-28
-4.53267e-27
2.14711e-29
-5.40824e-29
7.63373e-31
6.39091e-31
2.26016e-32
8.34639e-32
5.41541e-34
3.91471e-33
1.01012e-35
1.27486e-34
1.38015e-37
3.08553e-36
1.2525e-39
5.40984e-38
6.34894e-42
6.27952e-40
1.27872e-44
4.02391e-42
6.34748e-47
9.15921e-45
3.49181e-47
-6.606e-19
8.27045e-19
-1.61151e-18
1.9202e-19
-6.49252e-19
-4.79991e-18
-6.53098e-21
-4.85666e-18
8.27704e-22
-2.57457e-19
1.36141e-23
-2.49648e-21
3.70814e-25
-2.25875e-23
1.15151e-26
-2.33491e-25
3.57118e-28
-1.89411e-27
1.03531e-29
1.73808e-29
2.63724e-31
1.75375e-30
5.55504e-33
6.93292e-32
9.20644e-35
1.94889e-33
1.12285e-36
4.1053e-35
9.05697e-39
6.25072e-37
4.20866e-41
6.22064e-39
1.01071e-43
3.76282e-41
5.30664e-46
1.10434e-43
1.62709e-45
-5.96923e-18
1.7798e-17
-8.2014e-17
5.64373e-19
-2.90158e-17
-6.01307e-16
-9.38863e-20
-3.78728e-16
3.21867e-20
-1.29183e-17
3.51973e-22
-7.97412e-20
8.2407e-24
-6.32168e-22
2.12047e-25
-6.1136e-24
5.25525e-27
-4.22565e-26
1.23031e-28
3.82288e-28
2.6011e-30
2.81681e-29
4.6793e-32
9.15955e-31
6.73233e-34
2.17575e-32
7.18346e-36
3.91387e-34
5.43763e-38
5.18305e-36
2.86776e-40
5.09956e-38
8.49215e-43
3.38021e-40
8.50206e-45
1.12325e-42
3.65022e-44
-3.89464e-17
1.61408e-16
-2.37433e-15
-1.00237e-16
-4.01457e-16
-1.63502e-14
4.58655e-18
-2.6222e-15
2.64431e-19
-5.15194e-17
3.80304e-21
-3.99013e-19
1.02119e-22
-4.88401e-21
2.69936e-24
-6.11922e-23
6.20562e-26
-4.36991e-25
1.27664e-27
6.1256e-27
2.33301e-29
3.55243e-28
3.61949e-31
9.95211e-30
4.5714e-33
2.03963e-31
4.67987e-35
3.30585e-33
3.72131e-37
4.2965e-35
2.05935e-39
4.24256e-37
6.41559e-42
2.84732e-39
9.15281e-44
9.7854e-42
5.0695e-43
-1.97595e-14
1.04938e-14
-1.52895e-14
-2.02089e-14
-1.09392e-15
-4.8548e-14
1.51585e-17
-2.67766e-15
6.07537e-19
-5.9679e-17
2.06756e-20
-1.13386e-18
7.4485e-22
-2.30826e-20
2.10732e-23
-3.60914e-22
4.86003e-25
-2.54201e-24
9.75833e-27
6.17953e-26
1.69323e-28
3.12667e-27
2.48294e-30
8.22989e-29
3.12014e-32
1.63834e-30
3.25131e-34
2.65296e-32
2.60941e-36
3.43799e-34
1.46184e-38
3.38171e-36
4.65151e-41
2.2808e-38
8.24209e-43
8.08693e-41
5.6412e-42
-1.25881e-13
1.08859e-13
-4.68155e-14
-4.70612e-14
-1.12317e-15
-4.26655e-14
9.28363e-18
-4.67812e-16
1.61088e-18
-8.96363e-17
1.32059e-19
-5.61774e-18
4.59109e-21
-1.31735e-19
1.2139e-22
-1.84729e-21
2.83547e-24
-9.64671e-24
5.82723e-26
4.61319e-25
1.02247e-27
2.11609e-26
1.53421e-29
5.55501e-28
1.99137e-31
1.12513e-29
2.13765e-33
1.86056e-31
1.76188e-35
2.46032e-33
1.01185e-37
2.4703e-35
3.26524e-40
1.69981e-37
6.65407e-42
6.16885e-40
5.41939e-41
-2.36635e-13
5.50014e-13
-3.94586e-14
3.68812e-13
-3.3068e-16
4.03401e-14
2.32753e-17
-4.11223e-16
2.65291e-17
-2.62893e-16
1.19787e-18
-2.10585e-17
2.60736e-20
-3.28551e-19
5.98672e-22
-2.51042e-21
1.37657e-23
-4.71524e-24
2.83412e-25
2.9298e-24
4.95977e-27
1.21062e-25
7.39511e-29
3.09217e-27
9.66247e-31
6.19175e-29
1.06214e-32
1.02625e-30
9.03778e-35
1.37547e-32
5.33188e-37
1.40924e-34
1.74173e-39
9.89325e-37
4.76976e-41
3.69997e-39
4.38656e-40
1.31447e-05
-5.11315e-05
2.80797e-05
-6.44945e-05
4.17827e-05
-6.37224e-05
5.47082e-05
-6.2754e-05
6.73372e-05
-6.30134e-05
7.99957e-05
-6.429e-05
9.29256e-05
-6.63695e-05
0.000106307
-6.91462e-05
0.000120264
-7.25511e-05
0.000134857
-7.64789e-05
0.000150063
-8.07227e-05
0.000165744
-8.4907e-05
0.000181598
-8.84024e-05
0.000197071
-9.02063e-05
0.000211271
-8.8833e-05
0.000223048
-8.24924e-05
0.000226045
-6.44363e-05
0.00012368
-3.53146e-05
1.78768e-06
-3.74644e-06
3.54214e-07
9.44221e-08
4.05757e-07
7.95019e-08
5.82488e-07
1.74754e-07
1.45846e-06
2.43922e-06
1.28707e-05
-6.40022e-05
2.70808e-05
-7.87047e-05
4.02631e-05
-7.69048e-05
5.28056e-05
-7.52965e-05
6.50811e-05
-7.52889e-05
7.73432e-05
-7.65521e-05
8.97925e-05
-7.88188e-05
0.00010259
-8.1944e-05
0.000115852
-8.58129e-05
0.000129633
-9.02594e-05
0.000143902
-9.49925e-05
0.000158509
-9.95139e-05
0.000173111
-0.000103004
0.000187057
-0.000104152
0.000199305
-0.000101081
0.000207314
-9.05063e-05
0.000138569
-6.31109e-05
5.20625e-06
-8.71236e-06
2.65056e-07
-3.25688e-07
1.11163e-07
2.60804e-08
1.26211e-07
1.78977e-08
2.16943e-07
5.32103e-08
8.11485e-07
6.46179e-07
1.23877e-05
-7.63899e-05
2.55402e-05
-9.18571e-05
3.78421e-05
-8.92066e-05
4.97034e-05
-8.71578e-05
6.13869e-05
-8.69725e-05
7.30679e-05
-8.8233e-05
8.48981e-05
-9.06491e-05
9.70105e-05
-9.40565e-05
0.000109505
-9.83074e-05
0.000122428
-0.000103182
0.000135742
-0.000108307
0.000149278
-0.00011305
0.00016264
-0.000116367
0.000175048
-0.00011656
0.000185093
-0.000111126
0.000169344
-8.23701e-05
1.67609e-05
-2.43456e-05
5.77665e-07
-1.20371e-06
4.65629e-08
-3.62495e-09
1.60892e-08
8.63193e-09
2.46098e-08
2.99563e-09
6.43504e-08
9.59445e-09
1.69435e-07
6.8005e-07
1.17521e-05
-8.81421e-05
2.36662e-05
-0.000103771
3.48924e-05
-0.000100433
4.58671e-05
-9.81325e-05
5.6764e-05
-9.78694e-05
6.7693e-05
-9.9162e-05
7.87634e-05
-0.000101719
9.00802e-05
-0.000105373
0.000101726
-0.000109953
0.000113737
-0.000115193
0.000126064
-0.000120634
0.000138512
-0.000125498
0.000150606
-0.000128461
0.000161437
-0.000127391
0.000164971
-0.000114677
5.78302e-05
-6.37585e-05
1.27251e-06
-4.39609e-06
5.21828e-08
-2.60013e-07
2.92324e-09
6.93463e-09
1.85364e-09
2.14437e-09
3.56031e-09
4.002e-10
1.11496e-08
1.31622e-09
2.25533e-08
1.55068e-07
1.0991e-05
-9.91331e-05
2.15837e-05
-0.000114364
3.16494e-05
-0.000110498
4.16201e-05
-0.000108103
5.15965e-05
-0.000107846
6.16406e-05
-0.000109206
7.18298e-05
-0.000111909
8.22471e-05
-0.000115791
9.29608e-05
-0.000120667
0.000103996
-0.000126228
0.000115292
-0.00013193
0.000126614
-0.00013682
0.000137397
-0.000139244
0.000146515
-0.000136508
0.000112719
-0.00011566
4.15801e-06
-1.98577e-05
2.86071e-07
-9.29266e-07
2.25986e-09
-2.18062e-08
-5.00819e-10
2.69928e-09
1.36501e-10
3.75325e-10
4.14967e-10
4.53234e-11
1.54461e-09
1.42694e-10
2.36493e-09
2.10703e-08
1.01254e-05
-0.000109258
1.93684e-05
-0.000123607
2.82509e-05
-0.000119381
3.71604e-05
-0.000117013
4.61346e-05
-0.00011682
5.5201e-05
-0.000118273
6.44146e-05
-0.000121122
7.38428e-05
-0.000125219
8.35443e-05
-0.000130369
9.3539e-05
-0.000136223
0.000103752
-0.000142143
0.000113902
-0.000146971
0.000123312
-0.000148654
0.000128554
-0.000141752
3.3993e-05
-7.78246e-05
8.2646e-07
-3.51455e-06
2.96054e-08
-2.16496e-07
-1.23059e-09
1.09975e-09
-1.78017e-10
6.01125e-10
8.46586e-12
5.03883e-11
4.20833e-11
7.47066e-12
1.75222e-10
1.4052e-11
2.41577e-10
2.27857e-09
9.17915e-06
-0.000118438
1.70687e-05
-0.000131496
2.47753e-05
-0.000127088
3.26045e-05
-0.000124842
4.05344e-05
-0.00012475
4.85653e-05
-0.000126303
5.67349e-05
-0.000129292
6.50997e-05
-0.000133584
7.37143e-05
-0.000138983
8.26e-05
-0.000145109
9.1679e-05
-0.000151222
0.000100638
-0.00015593
0.000108667
-0.000156683
9.5677e-05
-0.000129965
2.91342e-06
-2.9512e-05
2.0176e-07
-9.58918e-07
4.37598e-10
-2.6552e-08
-3.97661e-10
8.56776e-10
-2.89962e-11
9.23016e-11
1.04427e-12
6.30803e-12
3.99818e-12
1.30202e-12
1.90449e-11
2.03984e-12
2.46012e-11
2.25176e-10
8.16905e-06
-0.000126607
1.47083e-05
-0.000138036
2.12678e-05
-0.000133647
2.80277e-05
-0.000131602
3.4905e-05
-0.000131627
4.18741e-05
-0.000133273
4.89569e-05
-0.000136375
5.62001e-05
-0.000140827
6.3658e-05
-0.000146441
7.13616e-05
-0.000152812
7.92427e-05
-0.000159103
8.69724e-05
-0.000163659
9.31726e-05
-0.000162888
3.6696e-05
-0.000111808
7.80497e-07
-4.98006e-06
2.61232e-08
-2.32764e-07
-6.06936e-10
-1.59421e-09
-7.77385e-11
1.8071e-10
-2.46112e-12
1.34873e-12
1.25284e-13
4.24606e-13
3.4558e-13
6.20361e-13
1.71185e-12
4.27701e-13
2.57428e-12
2.17422e-11
7.06606e-06
-0.000133672
1.2281e-05
-0.00014325
1.77571e-05
-0.000139123
2.34962e-05
-0.000137341
2.93512e-05
-0.000137482
3.52698e-05
-0.000139191
4.12559e-05
-0.00014236
4.73435e-05
-0.000146914
5.3586e-05
-0.000152683
6.00335e-05
-0.000159259
6.66584e-05
-0.000165727
7.31207e-05
-0.000170121
7.35037e-05
-0.000163264
4.67823e-06
-6.12212e-05
1.93771e-07
-1.15248e-06
1.63133e-09
-4.3783e-08
-1.68461e-10
1.30473e-10
-1.07914e-11
2.6914e-11
-2.40362e-13
5.04701e-12
2.29231e-14
2.44838e-12
2.67968e-14
3.91282e-13
1.49065e-13
2.45296e-13
4.85748e-13
1.92769e-12
5.70724e-06
-0.000139378
9.73343e-06
-0.000147274
1.42669e-05
-0.000143655
1.90945e-05
-0.000142167
2.40144e-05
-0.000142401
2.89496e-05
-0.000144125
3.38828e-05
-0.000147292
3.88275e-05
-0.000151857
4.38255e-05
-0.000157678
4.89451e-05
-0.000164373
5.42344e-05
-0.000171008
5.91767e-05
-0.000175054
4.51606e-05
-0.000158321
7.48758e-07
-2.18187e-05
3.95971e-08
-4.51943e-07
-6.95436e-11
-4.68995e-09
-1.90983e-11
7.64807e-11
-6.26248e-14
8.3543e-12
-5.44484e-13
7.043e-12
-8.35011e-14
2.60314e-12
-2.41612e-16
3.93705e-13
1.98555e-14
2.10137e-13
2.25952e-14
1.47595e-13
3.79907e-06
-0.000143153
7.04079e-06
-0.000150495
1.08762e-05
-0.000147475
1.4971e-05
-0.000146251
1.9113e-05
-0.000146534
2.3209e-05
-0.000148212
2.72187e-05
-0.000151289
3.11217e-05
-0.00015574
3.49236e-05
-0.000161449
3.86793e-05
-0.000168078
4.24575e-05
-0.000174709
4.43436e-05
-0.000176862
1.69902e-05
-0.000130885
3.45504e-07
-4.68634e-06
4.35294e-09
-1.1099e-07
-7.06315e-11
-1.93741e-10
-3.92243e-12
1.06209e-11
-2.29708e-12
5.21667e-12
-8.29041e-13
1.86963e-12
-1.28623e-13
8.71235e-13
-1.66061e-14
3.3198e-13
1.93745e-15
1.70292e-13
7.49635e-14
1.31641e-14
1.6179e-06
-0.000144525
4.54676e-06
-0.000153212
7.84194e-06
-0.000150619
1.13766e-05
-0.000149677
1.49406e-05
-0.000150006
1.84167e-05
-0.00015159
2.1727e-05
-0.000154474
2.47952e-05
-0.000158622
2.75549e-05
-0.000163916
3.00084e-05
-0.00017008
3.2004e-05
-0.000176051
3.06206e-05
-0.000174784
3.09619e-06
-8.40903e-05
9.40789e-08
-8.31262e-07
1.81463e-10
-1.68577e-08
-1.29797e-11
1.81496e-12
-2.42489e-12
9.94047e-14
-8.89166e-13
5.9732e-13
-2.69381e-13
9.99416e-14
-7.27647e-14
1.51848e-13
-2.19376e-14
2.00129e-13
-4.85658e-15
1.04773e-13
5.07047e-14
1.53221e-15
1.92864e-06
-9.2991e-05
3.00653e-06
-0.000114255
5.42057e-06
-0.000125258
8.49299e-06
-0.000134668
1.16978e-05
-0.000139826
1.48212e-05
-0.000140295
1.76192e-05
-0.000137407
1.97873e-05
-0.000129313
2.08818e-05
-0.000115698
2.07748e-05
-9.67086e-05
1.99091e-05
-7.74731e-05
1.84422e-05
-7.81218e-05
6.70985e-07
-2.4565e-05
1.69012e-08
-1.66719e-07
-2.08888e-12
1.86947e-12
-1.29963e-13
2.09337e-14
-2.27196e-13
1.12428e-13
-1.17553e-13
-1.24469e-14
-5.82616e-14
1.00356e-13
-3.73773e-14
8.46308e-14
-1.7132e-14
8.35868e-14
-4.95522e-15
4.29081e-14
1.45174e-14
-5.08778e-16
3.46743e-06
2.42036e-17
1.22755e-06
3.86451e-17
1.9265e-06
1.64917e-16
3.47105e-06
1.85301e-11
5.05094e-06
5.61441e-12
6.28454e-06
1.6402e-13
6.58989e-06
5.34635e-14
5.9504e-06
1.62739e-14
4.67873e-06
2.19219e-15
3.1817e-06
-3.31865e-14
2.54566e-06
-1.5174e-12
2.5442e-06
-3.77768e-11
1.23664e-07
-4.19937e-09
3.96135e-14
-7.05255e-08
-9.87249e-14
1.08057e-12
-7.24844e-14
3.73942e-14
-8.40712e-14
1.8624e-13
-6.32164e-14
1.30608e-13
-3.58662e-14
7.94883e-14
-2.13913e-14
5.05003e-14
-8.85151e-15
2.9405e-14
-2.26091e-15
1.17378e-14
2.65312e-15
-2.88935e-16
-5.7149e-18
8.11315e-17
-2.37055e-18
2.16003e-16
-5.40899e-18
8.69494e-16
-9.19269e-13
3.14145e-13
-4.30365e-13
1.20153e-12
-1.73724e-14
1.00539e-12
-7.19174e-15
4.91679e-13
-2.58122e-15
1.44944e-13
-3.88582e-16
1.74353e-14
6.77941e-16
-1.03013e-14
3.0495e-14
-4.959e-13
5.4378e-13
-3.70808e-11
-1.74944e-09
-2.44495e-09
1.38071e-12
-3.56868e-08
-8.74836e-14
-2.06501e-15
-1.88745e-13
7.62729e-14
-1.27317e-13
2.40208e-13
-5.43808e-14
1.88562e-13
-2.35408e-14
4.19949e-14
-1.0177e-14
2.25636e-14
-3.09757e-15
8.57161e-15
-5.88881e-16
2.19606e-15
3.2853e-16
-6.25289e-17
3.92751e-19
1.25758e-16
-1.35892e-17
4.06152e-16
-4.46505e-17
1.3297e-15
-1.89454e-14
4.17067e-13
-9.1191e-14
1.68829e-12
-9.33408e-14
1.3737e-12
-5.13911e-14
6.30378e-13
-1.57653e-14
1.62862e-13
-1.72305e-15
6.98326e-15
1.00064e-14
-2.20308e-14
1.28445e-13
-9.98819e-13
6.33675e-11
-1.13321e-10
-3.94417e-09
-1.05874e-09
-2.06676e-13
-9.47259e-15
-2.07478e-13
-1.26243e-15
-2.46592e-13
8.7581e-14
-1.20843e-13
2.30057e-13
-3.31028e-14
1.20258e-13
-1.14494e-14
1.56851e-14
-3.51565e-15
6.86824e-15
-7.20236e-16
1.72087e-15
-1.00245e-16
2.83836e-16
3.12632e-17
-8.90121e-18
6.09828e-17
9.52834e-17
-5.867e-18
4.24863e-16
-4.39476e-17
1.14764e-15
-1.22572e-14
2.37587e-13
-3.7727e-14
9.29496e-13
-1.83509e-14
7.24178e-13
-5.7458e-16
3.09008e-13
1.32309e-16
7.03766e-14
-4.20001e-15
-1.02903e-14
1.01356e-13
-1.249e-13
5.98901e-12
-6.97562e-12
-2.23248e-10
-9.85907e-11
-2.5912e-15
-3.56191e-10
-1.62396e-14
-1.58712e-15
-1.02887e-13
-2.71995e-16
-2.01836e-13
4.5624e-14
-9.48555e-14
1.03127e-13
-1.31651e-14
2.34984e-14
-3.74654e-15
4.2135e-15
-7.89531e-16
1.29399e-15
-1.13853e-16
2.16655e-16
-1.25537e-17
2.70029e-17
2.47695e-18
-9.74252e-19
3.58577e-17
3.1703e-17
9.05812e-18
1.89979e-16
3.06319e-16
5.03539e-16
1.90684e-14
2.90356e-15
3.29997e-14
8.41409e-15
2.29532e-14
1.07358e-14
7.59047e-15
6.90122e-15
-1.5486e-15
-1.57239e-15
8.0969e-15
-1.95361e-14
5.61739e-13
-7.08706e-13
-2.13424e-11
-5.28256e-12
-2.45578e-11
-1.54786e-12
-9.54591e-15
-4.72151e-13
-1.34514e-14
-2.27516e-15
-4.23519e-14
3.56276e-17
-6.41284e-14
6.14198e-15
-2.22435e-14
1.17054e-14
-3.46389e-15
3.26526e-15
-7.65373e-16
7.14546e-16
-1.13979e-16
1.41913e-16
-1.32661e-17
1.84078e-17
-1.24714e-18
2.07179e-18
1.67066e-19
-8.50921e-20
8.98946e-18
2.21973e-23
1.91761e-17
5.73452e-22
1.60838e-16
8.65727e-21
7.02851e-16
7.12633e-20
1.2883e-15
2.37524e-19
1.12253e-15
-1.03401e-17
-2.21809e-16
-1.56777e-16
-2.98375e-16
-1.49582e-15
9.17214e-15
-3.20516e-14
-1.58803e-12
-6.63055e-13
-1.09214e-13
-2.61418e-12
-3.63483e-14
-7.97659e-13
-8.98309e-15
-5.007e-13
-2.09962e-15
-1.26481e-14
-5.55955e-15
5.72207e-18
-7.33697e-15
2.78107e-16
-3.40689e-15
5.56101e-16
-5.78645e-16
3.22085e-16
-9.43945e-17
6.49228e-17
-1.15655e-17
9.71668e-18
-1.22444e-18
1.21291e-18
-1.01174e-19
1.33609e-19
9.52605e-21
-6.01454e-21
2.62624e-23
2.45966e-23
6.13965e-22
7.44681e-22
7.45548e-21
1.15221e-20
3.43016e-20
1.04895e-19
-2.04526e-19
5.43341e-19
-1.14164e-17
8.71769e-19
-1.48106e-16
-2.00874e-17
-1.2105e-15
-4.6898e-16
-8.28337e-14
-5.74426e-15
-7.16033e-13
-1.96539e-13
-8.11465e-13
-1.69052e-12
-9.47411e-13
-1.87398e-12
-4.20838e-13
-1.18341e-12
-5.26133e-16
-2.53834e-13
-5.13201e-16
-1.22424e-19
-5.27941e-16
1.10356e-17
-3.15296e-16
2.5287e-17
-5.56992e-17
1.64598e-17
-7.64614e-18
3.28045e-18
-9.063e-19
4.88802e-19
-9.21239e-20
6.61656e-20
-6.75154e-21
7.19819e-21
4.55979e-22
-3.50458e-22
4.01623e-23
1.4897e-23
1.13511e-21
5.00014e-22
1.52395e-20
8.45774e-21
1.06506e-19
9.08813e-20
2.20464e-19
6.71447e-19
-3.06053e-18
3.5262e-18
-3.64629e-17
1.33156e-17
-4.46963e-16
3.59775e-17
-6.3194e-15
6.79768e-17
-3.45442e-13
8.55114e-17
-2.17904e-12
6.63935e-17
-2.32928e-12
2.61011e-17
-1.75072e-12
2.42942e-18
-3.81616e-17
-8.98849e-18
-3.01619e-17
-3.47186e-19
-3.12791e-17
4.65237e-19
-1.72417e-17
9.4081e-19
-3.21913e-18
4.69018e-19
-4.57549e-19
1.09579e-19
-5.68867e-20
1.98465e-20
-5.6646e-21
2.95151e-21
-3.71526e-22
3.19452e-22
1.82793e-23
-1.71751e-23
3.10906e-23
3.45891e-25
1.00679e-21
8.78773e-24
1.60225e-20
1.06346e-22
1.58947e-19
7.76927e-22
1.06875e-18
3.58873e-21
5.0441e-18
9.78982e-21
1.68798e-17
9.75372e-21
3.96225e-17
-2.78633e-20
6.30579e-17
-5.19041e-19
6.39993e-17
-2.79323e-18
3.48644e-17
-4.63381e-18
5.0085e-18
-4.07827e-18
-7.65382e-19
-2.46731e-18
-9.36541e-18
-3.88462e-19
-1.87338e-18
-2.18549e-20
-1.39224e-18
1.80615e-20
-6.288e-19
2.08921e-20
-1.26956e-19
1.0816e-20
-2.12049e-20
2.81907e-21
-2.84318e-21
6.45478e-22
-2.83332e-22
1.04752e-22
-1.68722e-23
1.1553e-23
6.14753e-25
-7.19879e-25
5.93814e-25
1.3565e-27
1.41227e-23
2.52102e-26
1.54079e-22
2.01697e-25
9.57747e-22
8.346e-25
3.34331e-21
1.48827e-24
4.15648e-21
-8.5685e-25
-1.46754e-20
-2.39745e-23
-5.75443e-20
-5.64836e-22
-1.30226e-18
-1.70841e-20
-4.57589e-18
-1.82082e-19
-5.95119e-18
-5.63481e-19
-5.28912e-18
-3.74049e-19
-2.25302e-18
-2.38114e-19
-3.124e-19
-2.75766e-20
-9.44652e-20
-1.63786e-21
-4.76455e-20
4.17262e-22
-1.87728e-20
4.02398e-22
-3.91255e-21
2.21622e-22
-7.70985e-22
6.23259e-23
-1.12419e-22
1.69045e-23
-1.14226e-23
2.98284e-24
-6.36414e-25
3.38925e-25
2.02441e-26
-2.70729e-26
1.78557e-27
-5.18354e-36
2.85106e-26
-8.82791e-34
1.77619e-25
-7.53783e-32
4.28102e-25
-4.34965e-30
-3.14996e-25
-1.89627e-28
-1.15918e-24
-1.26638e-26
-2.51304e-23
-3.39737e-25
-6.89404e-22
-4.80825e-24
-2.6238e-20
-1.53424e-22
-2.23484e-19
-1.4944e-21
-5.77795e-19
-4.21969e-21
-4.10037e-19
-5.0707e-21
-9.33228e-20
-3.7221e-21
-1.5027e-20
-7.6576e-22
-5.53271e-21
-7.86669e-23
-1.48144e-21
6.64105e-24
-4.73648e-22
7.57286e-24
-1.0524e-22
3.85913e-24
-2.32275e-23
1.2975e-24
-3.64022e-24
3.81693e-25
-3.74488e-25
7.24741e-26
-2.06445e-26
8.37122e-27
5.65049e-28
-8.92366e-28
-5.17742e-36
-6.11861e-39
-8.87014e-34
-9.54594e-37
-7.6179e-32
-8.61856e-35
-4.42053e-30
-5.26251e-33
-1.93803e-28
-2.42145e-31
-1.28518e-26
-8.69137e-30
-3.51375e-25
-2.52615e-28
-6.72706e-24
-3.90607e-27
-2.4205e-22
-1.00027e-25
-1.77734e-21
-2.52192e-24
-3.96566e-21
-2.2376e-23
-4.21672e-21
-6.13141e-23
-2.22305e-21
-7.0121e-23
-5.1287e-22
-4.59132e-23
-2.01649e-22
-6.67161e-24
-3.97547e-23
-9.77707e-26
-1.05143e-23
1.58551e-25
-2.70827e-24
6.21878e-26
-6.22681e-25
2.93845e-26
-1.02884e-25
8.14146e-27
-1.0598e-26
1.62997e-27
-5.90313e-28
1.91576e-28
1.04482e-29
-2.55309e-29
-7.63174e-39
1.51314e-39
-9.69187e-37
7.48192e-39
-8.69507e-35
-1.74123e-37
-5.33338e-33
-1.19911e-35
-2.46579e-31
-6.18048e-34
-8.50535e-30
-1.75563e-32
-2.52545e-28
-5.62077e-31
-4.18061e-27
-1.23206e-29
-1.51254e-25
-3.14854e-28
-4.60771e-24
-9.35999e-27
-3.35967e-23
-1.23751e-25
-7.55153e-23
-4.7224e-25
-7.79159e-23
-6.65548e-25
-3.6412e-23
-5.07752e-25
-3.00422e-24
-1.19287e-25
-1.46211e-24
-7.68079e-27
-2.2936e-25
3.31395e-27
-7.29958e-26
1.04856e-27
-1.59566e-26
7.09415e-28
-2.71233e-27
1.76152e-28
-2.86209e-28
3.69319e-29
-1.52382e-29
4.62546e-30
2.30589e-31
-6.4588e-31
5.40014e-40
-1.69103e-45
-1.41221e-38
-3.65632e-43
-1.79359e-37
-4.95707e-41
-1.1573e-35
-3.42783e-39
-5.99496e-34
-1.83129e-37
-1.81528e-32
-7.83105e-36
-5.80132e-31
-2.72606e-34
-1.2898e-29
-6.58399e-33
-4.15466e-28
-1.74737e-31
-1.86214e-26
-5.07814e-30
-2.13141e-25
-1.17961e-28
-6.2629e-25
-9.72555e-28
-7.49759e-25
-2.60101e-27
-4.60962e-25
-2.99602e-27
-7.96621e-26
-2.00264e-27
-4.11629e-26
-3.86735e-28
-5.40489e-27
-1.26124e-30
-2.03967e-27
2.30112e-29
-4.08926e-28
1.37105e-29
-7.05156e-29
3.81625e-30
-7.84687e-30
8.48949e-31
-3.922e-31
1.16849e-31
5.87696e-33
-1.54992e-32
-1.69026e-45
-7.66565e-49
-3.67138e-43
-1.84059e-46
-4.99338e-41
-1.451e-44
-3.477e-39
-1.10528e-42
-1.86582e-37
-6.48972e-41
-8.01632e-36
-3.03425e-39
-2.79594e-34
-1.15459e-37
-6.86135e-33
-3.19353e-36
-1.84833e-31
-9.34094e-35
-8.87119e-30
-2.48547e-33
-2.42456e-28
-7.43749e-32
-1.67706e-27
-1.62719e-30
-3.79147e-27
-1.17497e-29
-4.14782e-27
-2.5262e-29
-2.52031e-27
-2.30581e-29
-5.46448e-28
-9.74712e-30
-2.03319e-28
-7.16699e-31
-4.36644e-29
4.42856e-31
-1.02435e-29
1.56814e-31
-1.81555e-30
7.84242e-32
-2.1056e-31
1.84569e-32
-1.03049e-32
2.68351e-33
1.39838e-34
-3.75076e-34
-7.6724e-49
6.75457e-52
-1.84723e-46
-1.73073e-50
-1.46056e-44
-1.56902e-48
-1.11814e-42
-1.36643e-46
-6.58758e-41
-8.9729e-45
-3.01376e-39
-4.14246e-43
-1.16444e-37
-1.79246e-41
-3.31004e-36
-6.10735e-40
-9.67674e-35
-1.99176e-38
-2.86833e-33
-5.84801e-37
-1.57545e-31
-1.6767e-35
-4.09848e-30
-4.84081e-34
-2.31721e-29
-9.71305e-33
-3.97349e-29
-6.68799e-32
-3.62353e-29
-1.40881e-31
-1.03813e-29
-1.21093e-31
-4.42098e-30
-4.30796e-32
-7.34418e-31
5.45032e-34
-2.32832e-31
1.75116e-33
-4.4093e-32
1.31417e-33
-5.32285e-33
3.59493e-34
-2.71217e-34
5.72647e-35
3.31385e-36
-9.20166e-36
-6.1021e-52
-7.72852e-57
-1.69976e-50
-2.91636e-54
-1.55135e-48
-3.63817e-52
-1.34976e-46
-3.4667e-50
-8.89791e-45
-2.51614e-48
-4.23149e-43
-1.46363e-46
-1.83483e-41
-7.08447e-45
-6.29056e-40
-2.7154e-43
-2.05658e-38
-9.97659e-42
-6.07034e-37
-3.30611e-40
-2.21043e-35
-1.01056e-38
-1.13148e-33
-3.11559e-37
-2.74532e-32
-9.43518e-36
-1.57316e-31
-1.56753e-34
-2.77489e-31
-7.18478e-34
-2.5631e-31
-9.82678e-34
-5.2836e-32
-5.80574e-34
-1.23872e-32
-4.76834e-35
-4.35863e-33
1.64401e-35
-9.49846e-34
1.55042e-35
-1.2457e-34
6.00339e-36
-6.95511e-36
1.1187e-36
7.57815e-38
-2.29608e-37
-7.72776e-57
-7.64971e-61
-2.92405e-54
-1.69981e-58
-3.66723e-52
-2.3847e-56
-3.5031e-50
-2.55328e-54
-2.55109e-48
-2.08295e-52
-1.48906e-46
-1.36073e-50
-7.21996e-45
-7.37155e-49
-2.78482e-43
-3.23199e-47
-1.02586e-41
-1.34878e-45
-3.40955e-40
-5.07539e-44
-1.08167e-38
-1.74385e-42
-5.18744e-37
-5.88026e-41
-2.87837e-35
-1.8144e-39
-4.85548e-34
-5.55932e-38
-1.69878e-33
-9.44135e-37
-1.86338e-33
-4.24832e-36
-8.48603e-34
-5.14203e-36
-1.92184e-34
-2.19621e-36
-6.21847e-35
4.46265e-38
-1.73402e-35
1.29529e-37
-2.60409e-36
8.2973e-38
-1.6652e-37
1.9086e-38
1.58491e-39
-5.61543e-39
-7.65277e-61
3.06228e-64
-1.7035e-58
-2.94924e-62
-2.39619e-56
-4.7491e-60
-2.57511e-54
-5.8275e-58
-2.10635e-52
-5.38937e-56
-1.37362e-50
-3.81633e-54
-7.4794e-49
-2.37082e-52
-3.30723e-47
-1.22676e-50
-1.383e-45
-5.84079e-49
-5.21802e-44
-2.51176e-47
-1.79761e-42
-9.88122e-46
-6.77956e-41
-3.65762e-44
-3.30789e-39
-1.30978e-42
-1.94632e-37
-4.70067e-41
-3.53706e-36
-1.44946e-39
-1.21353e-35
-1.41015e-38
-1.17911e-35
-3.13038e-38
-2.08955e-36
-2.17431e-38
-7.00876e-37
-1.69652e-39
-2.59915e-37
9.35377e-40
-4.71787e-38
8.82259e-40
-3.58344e-39
2.7954e-40
2.94702e-41
-1.28468e-40
-1.30658e-63
-2.05112e-69
-2.99977e-62
-9.91269e-67
-4.71031e-60
-1.93164e-64
-5.78922e-58
-2.68824e-62
-5.37305e-56
-2.83169e-60
-3.8701e-54
-2.40868e-58
-2.40955e-52
-1.71121e-56
-1.25013e-50
-1.01454e-54
-5.96746e-49
-5.54897e-53
-2.57187e-47
-2.74553e-51
-1.01387e-45
-1.24523e-49
-3.78634e-44
-5.24827e-48
-1.77483e-42
-2.19325e-46
-1.33939e-40
-8.20617e-45
-5.99595e-39
-3.14932e-43
-4.58737e-38
-9.61298e-42
-7.17821e-38
-8.40694e-41
-3.74389e-38
-1.55962e-40
-9.5694e-39
-7.24424e-41
-3.06572e-39
5.00175e-42
-7.25108e-40
6.75708e-42
-6.79932e-41
3.51065e-42
4.86063e-43
-2.737e-42
-2.05079e-69
-3.26964e-73
-9.9332e-67
-9.69599e-71
-1.94152e-64
-2.19168e-68
-2.70755e-62
-3.51625e-66
-2.85883e-60
-4.2668e-64
-2.43733e-58
-4.18478e-62
-1.71833e-56
-3.39742e-60
-1.03342e-54
-2.36019e-58
-5.65549e-53
-1.49867e-56
-2.80375e-51
-8.61471e-55
-1.27425e-49
-4.54756e-53
-5.37731e-48
-2.23271e-51
-2.38573e-46
-1.03114e-49
-1.22525e-44
-4.73271e-48
-1.03534e-42
-2.07425e-46
-4.50353e-41
-9.91357e-45
-3.18229e-40
-2.06404e-43
-4.20501e-40
-7.86657e-43
-9.64875e-41
-6.38909e-43
-2.94082e-41
-1.6159e-44
-9.33946e-42
5.22515e-44
-1.12922e-42
3.66797e-44
7.14647e-45
-5.35811e-44
-3.2696e-73
-7.25327e-78
-9.69552e-71
-2.71322e-75
-2.19778e-68
-7.32314e-73
-3.53705e-66
-1.37888e-70
-4.30015e-64
-1.95192e-68
-4.07269e-62
-2.15403e-66
-3.45964e-60
-2.11127e-64
-2.39483e-58
-1.74071e-62
-1.52294e-56
-1.29959e-60
-8.76843e-55
-8.79471e-59
-4.6363e-53
-5.47308e-57
-2.27974e-51
-3.17198e-55
-1.04719e-49
-1.73065e-53
-5.54069e-48
-9.12792e-52
-4.56297e-46
-4.70188e-50
-4.82861e-44
-2.42577e-48
-9.08943e-43
-1.14661e-46
-2.22675e-42
-1.56073e-45
-1.2041e-42
-3.66381e-45
-3.55673e-43
-1.37337e-45
-1.02662e-43
4.22567e-46
-1.62998e-44
3.13902e-46
9.46474e-47
-9.3625e-46
-6.97281e-78
-1.20328e-82
-2.70037e-75
-8.07484e-80
-7.33615e-73
-2.68334e-77
-1.38332e-70
-5.95676e-75
-1.96183e-68
-9.98981e-73
-2.24472e-66
-1.35903e-70
-2.13376e-64
-1.56318e-68
-1.76211e-62
-1.54319e-66
-1.31755e-60
-1.38252e-64
-8.92858e-59
-1.1232e-62
-5.56417e-57
-8.39883e-61
-3.22904e-55
-5.85337e-59
-1.76347e-53
-3.8427e-57
-9.15578e-52
-2.39717e-55
-6.11617e-50
-1.45264e-53
-7.32387e-48
-8.68799e-52
-5.8984e-46
-5.80741e-50
-6.71625e-45
-2.46659e-48
-1.13876e-44
-1.65699e-47
-3.27232e-45
-1.43724e-47
-9.44128e-46
1.96226e-48
-2.05993e-46
3.02001e-48
1.12404e-48
-1.51168e-47
-1.20327e-82
-3.88927e-87
-8.08686e-80
-3.42329e-84
-2.69139e-77
-1.35045e-81
-5.98364e-75
-3.58414e-79
-1.00497e-72
-7.29006e-77
-1.36909e-70
-1.21468e-74
-1.57682e-68
-1.72009e-72
-1.56673e-66
-2.10346e-70
-1.39856e-64
-2.32558e-68
-1.1376e-62
-2.33728e-66
-8.51701e-61
-2.16268e-64
-5.94296e-59
-1.8655e-62
-3.90626e-57
-1.51618e-60
-2.43925e-55
-1.17123e-58