/*--------------------------------*- C++ -*----------------------------------*\
| =========                 |                                                 |
| \\      /  F ield         | OpenFOAM: The Open Source CFD Toolbox           |
|  \\    /   O peration     | Version:  v2012                                 |
|   \\  /    A nd           | Website:  www.openfoam.com                      |
|    \\/     M anipulation  |                                                 |
\*---------------------------------------------------------------------------*/
FoamFile
{
    version     2.0;
    format      ascii;
    class       volScalarField;
    location    "0.15";
    object      p;
}
// * * * * * * * * * * * * * * * * * * * * * * * * * * * * * * * * * * * * * //

dimensions      [1 -1 -2 0 0 0 0];


internalField   nonuniform List<scalar> 
2268
(
2229.35
2239.65
2244.53
2243.09
2233.36
2214.51
2186.1
2147.52
2097.81
2035.82
1960.18
1869.38
1761.99
1637.15
1495.54
1341.27
1185.46
1052.33
996.013
1080.51
1388.31
1947.66
2696.55
2168.33
2176.49
2178.28
2174.17
2162.5
2142.05
2112.18
2072.08
2020.69
1956.75
1878.82
1785.39
1675.09
1547.2
1402.71
1246.11
1088.57
952.775
875.498
928.297
1195.52
1750.59
2682.66
2107.17
2114.43
2113.13
2105.72
2091.19
2068.16
2035.84
1993.26
1939.2
1872.3
1791.08
1694.05
1579.98
1448.42
1300.69
1141.57
981.919
842.044
752.418
758.301
924.885
1318.79
2371.07
2045.29
2052.71
2049.43
2039.32
2022.08
1996.39
1961.45
1916.19
1859.31
1789.36
1704.83
1604.28
1486.57
1351.43
1200.32
1037.93
874.204
725.925
614.043
559.875
595.9
715.794
1619.64
1982.67
1990.52
1986.16
1974.21
1954.87
1926.96
1889.72
1842.08
1782.66
1710
1622.54
1518.86
1397.87
1259.32
1104.65
938.16
768.512
608.195
467.967
356.16
286.854
266.674
768.369
1919.38
1927.65
1922.67
1909.52
1888.65
1859
1819.87
1770.19
1708.59
1633.54
1543.5
1437.01
1312.97
1171.11
1012.77
841.809
665.482
491.592
324.012
184.914
106.19
89.3226
239.719
1855.45
1864.09
1858.75
1844.82
1822.88
1791.94
1751.3
1699.93
1636.44
1559.33
1467
1357.95
1231.05
1085.98
924.007
748.702
565.639
377.9
195.24
73.63
33.6006
32.1567
61.5254
1790.93
1799.64
1794.23
1779.85
1757.25
1725.42
1683.66
1630.96
1565.95
1487.1
1392.8
1281.48
1151.95
1003.84
838.418
658.858
468.406
269.126
97.1279
22.0947
12.2059
13.7489
23.5584
-1.65638
-1.57282
-1.43098
-1.26359
-1.10274
-0.959637
-0.837566
-0.735538
-0.651131
-0.58186
-0.524978
-0.478614
-0.440914
-0.410404
-0.385947
-0.366633
-0.351916
-0.341652
-0.33523
-1.73125
-1.64373
-1.49919
-1.32796
-1.16419
-1.01891
-0.895423
-0.792571
-0.707766
-0.638144
-0.581281
-0.534934
-0.497276
-0.466816
-0.442436
-0.423257
-0.408778
-0.398861
-0.392852
-1.82722
-1.72519
-1.57121
-1.39206
-1.22355
-1.07536
-0.95033
-0.846806
-0.761859
-0.692408
-0.63579
-0.589733
-0.552368
-0.522184
-0.498084
-0.479226
-0.465131
-0.455575
-0.449793
-1.94756
-1.81927
-1.64696
-1.45436
-1.27907
-1.12758
-1.00134
-0.897685
-0.813158
-0.744377
-0.688458
-0.643066
-0.606302
-0.576659
-0.553049
-0.53466
-0.521
-0.511681
-0.505885
-2.09794
-1.9294
-1.72595
-1.51407
-1.32996
-1.17506
-1.04813
-0.945042
-0.861592
-0.794044
-0.739303
-0.694962
-0.659111
-0.630255
-0.607319
-0.589503
-0.576279
-0.567092
-0.561183
-2.28817
-2.04959
-1.80654
-1.57009
-1.37547
-1.21734
-1.09048
-0.988787
-0.907144
-0.841418
-0.788337
-0.745428
-0.710788
-0.682945
-0.660841
-0.64368
-0.630895
-0.621794
-0.615764
-2.53769
-2.18051
-1.8879
-1.62166
-1.41483
-1.25397
-1.12818
-1.02886
-0.949823
-0.886538
-0.835603
-0.794503
-0.76136
-0.734741
-0.713611
-0.697179
-0.684842
-0.675825
-0.669697
-2.8674
-2.34293
-1.9728
-1.66921
-1.44754
-1.2846
-1.16113
-1.06529
-0.989702
-0.929498
-0.881191
-0.842269
-0.810895
-0.785696
-0.765666
-0.750029
-0.738146
-0.72923
-0.723044
1689.32
1697.33
1692.17
1677.49
1654.33
1621.74
1578.88
1524.74
1458
1377.13
1280.43
1166.26
1033.28
881.127
710.948
523.901
320.412
125.545
22.9251
4.18912
3.56833
3.48388
1.43241
1549.24
1556.16
1550.93
1536.46
1513.41
1480.8
1437.67
1382.99
1315.4
1233.32
1134.98
1018.56
882.704
727.112
551.765
353.79
147.713
25.2671
2.36464
1.1904
1.23358
1.08774
0.590641
1408.03
1413.47
1408.04
1394.09
1371.72
1339.83
1297.42
1243.34
1176.2
1094.34
995.858
878.848
742.05
584.854
403.483
196.903
39.3689
2.6721
0.451302
0.328881
0.555417
0.590878
1.14517
1266.55
1270.39
1264.83
1251.58
1230.23
1199.6
1158.63
1106.12
1040.6
960.302
863.207
747.416
611.823
453.938
264.624
77.2179
6.12926
0.0623675
-0.314401
-0.121514
0.108651
0.175717
0.595684
1125.69
1127.96
1122.46
1110.06
1089.97
1061.02
1022.1
971.976
909.128
831.691
737.556
624.941
492.376
332.837
142.689
18.6691
0.515497
-0.722927
-0.683774
-0.460258
-0.261248
-0.141956
0.152066
986.233
987.073
981.832
970.422
951.818
924.892
888.555
841.569
782.394
709.097
619.56
512.134
383.701
221.439
54.6889
2.64128
-0.88206
-1.12152
-0.952189
-0.761838
-0.571188
-0.4049
-0.171476
848.781
848.381
843.613
833.333
816.425
791.845
758.565
715.411
660.878
593.032
509.82
409.313
284.515
125.94
14.3235
-0.319881
-1.44333
-1.39223
-1.20841
-1.03511
-0.846394
-0.668326
-0.481618
713.764
712.301
708.243
699.232
684.221
662.279
632.488
593.813
544.874
483.871
408.922
317.151
195.79
54.5735
1.94444
-1.54794
-1.7499
-1.61195
-1.45479
-1.28611
-1.10206
-0.931386
-0.779383
581.726
579.25
576.143
568.514
555.573
536.514
510.583
476.954
434.489
381.678
316.862
235.708
122.82
16.333
-0.994786
-2.03417
-1.96955
-1.82236
-1.68098
-1.51697
-1.34286
-1.18542
-1.05832
452.535
448.842
447.163
441.199
430.531
414.547
392.705
364.46
329.037
285.402
232.192
163.26
66.4761
4.06373
-1.55107
-2.25505
-2.15966
-2.03192
-1.89425
-1.73399
-1.5718
-1.42658
-1.31746
323.937
319.446
319.922
316.206
307.997
295.091
277.274
254.36
226.143
192.498
153.066
100.517
28.3713
-0.240336
-2.33203
-2.4852
-2.37509
-2.24827
-2.10022
-1.93978
-1.78601
-1.65461
-1.55628
195.609
194.516
196.084
194.239
188.159
178.069
164.175
146.795
126.57
104.781
82.9434
53.9083
9.51674
-1.89183
-2.8781
-2.70136
-2.58219
-2.44616
-2.28955
-2.13077
-1.98542
-1.86436
-1.77374
76.1155
87.6941
85.3804
84.3869
80.6433
74.0143
65.1735
55.0425
45.4067
37.789
33.4966
27.77
2.20895
-2.67023
-3.08844
-2.88375
-2.76145
-2.61594
-2.45712
-2.30379
-2.16756
-2.05551
-1.97092
8.92471
18.5828
18.1076
19.6563
19.6135
17.9742
15.2856
11.6503
7.48814
3.6916
1.13225
1.60954
-2.40756
-3.41613
-3.2034
-3.06075
-2.92164
-2.76334
-2.60493
-2.4591
-2.33255
-2.22919
-2.15033
-3.19579
-2.00996
-2.84011
-3.07625
-3.20567
-3.28166
-3.34446
-3.41485
-3.50147
-3.54676
-3.50792
-3.45534
-3.54775
-3.57466
-3.37573
-3.20321
-3.04606
-2.88489
-2.73286
-2.59733
-2.48159
-2.38736
-2.31472
-2.98337
-2.89968
-2.95495
-2.95472
-2.97989
-3.02336
-3.08583
-3.16824
-3.26058
-3.35828
-3.45368
-3.54414
-3.62446
-3.57547
-3.43687
-3.27973
-3.12756
-2.97852
-2.84103
-2.71971
-2.61651
-2.53225
-2.46654
-3.04884
-2.98884
-3.03424
-3.05768
-3.09788
-3.14566
-3.20262
-3.26885
-3.34025
-3.41239
-3.4799
-3.53868
-3.5734
-3.54013
-3.4391
-3.31137
-3.18025
-3.05238
-2.93428
-2.82959
-2.74003
-2.66627
-2.608
-3.11008
-3.09094
-3.12657
-3.15352
-3.19497
-3.23949
-3.28732
-3.339
-3.39305
-3.44609
-3.49317
-3.529
-3.54225
-3.51074
-3.43194
-3.3304
-3.223
-3.11755
-3.01929
-2.93132
-2.85528
-2.79194
-2.74119
-3.19308
-3.19562
-3.22042
-3.24627
-3.27941
-3.31529
-3.35305
-3.39261
-3.43306
-3.47181
-3.50452
-3.52576
-3.52681
-3.49611
-3.43356
-3.35321
-3.26693
-3.18156
-3.10128
-3.02865
-2.96518
-2.91164
-2.86809
-3.27822
-3.28962
-3.31101
-3.33446
-3.36068
-3.38821
-3.41651
-3.44536
-3.47403
-3.50048
-3.52119
-3.53153
-3.52546
-3.4971
-3.44737
-3.38444
-3.31623
-3.24811
-3.18344
-3.12435
-3.07212
-3.02748
-2.99059
-3.36198
-3.37764
-3.39802
-3.41893
-3.43988
-3.46054
-3.48083
-3.50064
-3.51943
-3.53568
-3.5468
-3.54939
-3.53956
-3.51441
-3.47497
-3.42608
-3.37287
-3.31925
-3.26787
-3.22044
-3.17801
-3.14123
-3.11033
-3.44609
-3.46314
-3.48293
-3.50171
-3.5187
-3.53404
-3.54798
-3.56061
-3.57162
-3.58003
-3.5841
-3.58157
-3.57012
-3.54833
-3.51707
-3.47924
-3.4381
-3.39638
-3.35605
-3.31842
-3.28432
-3.25431
-3.22867
-3.53243
-3.54919
-3.56807
-3.58497
-3.59899
-3.6104
-3.61961
-3.62689
-3.63219
-3.63499
-3.63426
-3.62865
-3.61684
-3.59821
-3.57339
-3.54412
-3.51247
-3.48025
-3.44886
-3.41924
-3.39203
-3.36772
-3.34659
-3.62239
-3.63809
-3.6556
-3.67073
-3.68246
-3.69104
-3.69688
-3.70039
-3.70175
-3.70082
-3.69709
-3.68985
-3.67844
-3.66261
-3.64282
-3.62011
-3.59575
-3.57092
-3.54655
-3.52332
-3.50168
-3.48206
-3.46473
-3.71662
-3.73096
-3.74683
-3.76027
-3.77017
-3.7767
-3.78023
-3.78123
-3.78006
-3.77684
-3.77145
-3.76359
-3.75299
-3.7396
-3.72371
-3.70596
-3.6871
-3.66788
-3.64891
-3.63064
-3.61343
-3.5976
-3.58343
-3.81521
-3.8281
-3.84228
-3.85412
-3.8625
-3.86752
-3.86951
-3.86895
-3.86632
-3.8619
-3.8558
-3.84797
-3.83837
-3.82702
-3.81413
-3.80007
-3.7853
-3.77028
-3.75539
-3.74094
-3.72718
-3.71439
-3.70281
-3.91799
-3.92946
-3.94198
-3.95232
-3.95941
-3.9633
-3.9643
-3.96289
-3.95955
-3.95467
-3.94846
-3.94103
-3.93244
-3.92276
-3.91215
-3.90082
-3.88906
-3.87714
-3.86531
-3.85377
-3.8427
-3.83233
-3.82286
-4.02463
-4.03473
-4.04569
-4.05465
-4.06064
-4.06369
-4.06408
-4.06226
-4.05869
-4.05378
-4.0478
-4.04092
-4.03327
-4.02493
-4.01603
-4.00672
-3.99717
-3.98755
-3.97802
-3.9687
-3.95972
-3.95127
-3.94351
-4.13463
-4.14347
-4.15299
-4.16071
-4.16576
-4.16817
-4.16819
-4.16622
-4.16268
-4.15796
-4.15235
-4.14606
-4.13922
-4.13195
-4.12435
-4.11654
-4.10863
-4.10072
-4.09292
-4.08531
-4.07797
-4.07105
-4.06467
-4.24742
-4.25512
-4.26336
-4.26997
-4.27422
-4.27614
-4.27592
-4.27392
-4.27052
-4.26608
-4.26088
-4.25514
-4.249
-4.24259
-4.236
-4.22932
-4.22264
-4.21603
-4.20956
-4.20326
-4.19721
-4.19151
-4.18626
-4.36249
-4.36918
-4.37626
-4.3819
-4.38547
-4.38698
-4.38659
-4.38461
-4.38138
-4.37723
-4.37243
-4.36718
-4.36164
-4.35593
-4.35013
-4.34434
-4.33861
-4.333
-4.32755
-4.32229
-4.31726
-4.31255
-4.30821
-4.4794
-4.48519
-4.49125
-4.49603
-4.49901
-4.50015
-4.49962
-4.49766
-4.4946
-4.49073
-4.48629
-4.48148
-4.47645
-4.47131
-4.46617
-4.46108
-4.4561
-4.45127
-4.44663
-4.44219
-4.43797
-4.43404
-4.43045
-4.5978
-4.6028
-4.60797
-4.612
-4.61444
-4.61525
-4.61457
-4.61262
-4.6097
-4.60606
-4.60194
-4.59752
-4.59293
-4.58828
-4.58367
-4.57915
-4.57478
-4.57058
-4.56658
-4.56278
-4.55921
-4.55591
-4.55293
-4.71746
-4.72177
-4.72615
-4.72952
-4.73146
-4.73194
-4.73108
-4.72911
-4.72629
-4.72286
-4.71902
-4.71493
-4.71072
-4.7065
-4.70233
-4.69829
-4.69441
-4.69071
-4.68722
-4.68393
-4.68087
-4.67809
-4.6756
-4.83821
-4.8419
-4.84558
-4.84836
-4.84981
-4.84993
-4.84887
-4.84685
-4.8441
-4.84084
-4.83724
-4.83344
-4.82956
-4.82569
-4.82191
-4.81826
-4.81478
-4.81149
-4.8084
-4.80552
-4.80288
-4.80052
-4.79844
-4.95984
-4.963
-4.96606
-4.96829
-4.96923
-4.96896
-4.96766
-4.96557
-4.96287
-4.95975
-4.95635
-4.95281
-4.94922
-4.94566
-4.9422
-4.93888
-4.93574
-4.93278
-4.93002
-4.92747
-4.92517
-4.92316
-4.92146
-5.08187
-5.08485
-5.08736
-5.08906
-5.08947
-5.08877
-5.08723
-5.08505
-5.08238
-5.07938
-5.07617
-5.07285
-5.06951
-5.06623
-5.06305
-5.06002
-5.05716
-5.05448
-5.052
-5.04972
-5.04768
-5.04598
-5.04463
-5.20399
-5.20748
-5.20938
-5.2105
-5.2103
-5.20916
-5.20737
-5.2051
-5.20247
-5.19958
-5.19654
-5.19342
-5.19031
-5.18726
-5.18434
-5.18156
-5.17896
-5.17653
-5.17429
-5.17222
-5.17037
-5.16895
-5.16798
-5.32696
-5.33145
-5.3322
-5.33243
-5.33154
-5.32995
-5.32795
-5.32562
-5.32304
-5.32026
-5.31737
-5.31443
-5.31152
-5.30869
-5.306
-5.30346
-5.3011
-5.29891
-5.29688
-5.29495
-5.29319
-5.29202
-5.2915
-5.45127
-5.4584
-5.45619
-5.45475
-5.45309
-5.45115
-5.44899
-5.44664
-5.44411
-5.44143
-5.43866
-5.43588
-5.43315
-5.43052
-5.42803
-5.42572
-5.4236
-5.42164
-5.4198
-5.41789
-5.41586
-5.41483
-5.41508
-5.57221
-5.59254
-5.58216
-5.57744
-5.57501
-5.57285
-5.57062
-5.56825
-5.56574
-5.56313
-5.56046
-5.5578
-5.55521
-5.55275
-5.55047
-5.54838
-5.5465
-5.54478
-5.54307
-5.54079
-5.53725
-5.53612
-5.53817
-5.68054
-5.73402
-5.70839
-5.70063
-5.69751
-5.69504
-5.69265
-5.6902
-5.68767
-5.68508
-5.68247
-5.67992
-5.67748
-5.67521
-5.67314
-5.67131
-5.66968
-5.66819
-5.66659
-5.66374
-5.65717
-5.65719
-5.66172
-7.54331
-6.01389
-5.84692
-5.37186
-3.1817
-5.5145
-5.46744
-5.11067
-0.279226
-2.63047
-3.90666
-4.03269
0.221094
-0.318639
-0.874354
-1.39001
0.217934
0.178153
0.0767675
-0.0830485
-0.0611504
-0.0278769
-0.038838
-0.106767
-0.399203
-0.371949
-0.372382
-0.40847
-0.715489
-0.69281
-0.689358
-0.707894
-1.00591
-0.985599
-0.978664
-0.985674
-1.27156
-1.2518
-1.2415
-1.24057
-1.51274
-1.49204
-1.47832
-1.47154
-1.73083
-1.70884
-1.69229
-1.68136
-1.92838
-1.90554
-1.88718
-1.87359
-2.10874
-2.08577
-2.06657
-2.0515
-2.27506
-2.25269
-2.23347
-2.21775
-2.42968
-2.40854
-2.38996
-2.3743
-2.5745
-2.55501
-2.53756
-2.52254
-2.7113
-2.69369
-2.67774
-2.6638
-2.84184
-2.82623
-2.81199
-2.79944
-2.96784
-2.95423
-2.94179
-2.93077
-3.09087
-3.07917
-3.06849
-3.059
-3.2122
-3.20228
-3.19323
-3.18519
-3.33279
-3.32446
-3.31686
-3.31011
-3.45326
-3.44631
-3.43997
-3.43433
-3.57395
-3.56819
-3.56291
-3.55819
-3.69501
-3.69024
-3.68585
-3.68188
-3.81646
-3.81252
-3.80885
-3.80551
-3.93825
-3.935
-3.93192
-3.9291
-4.06036
-4.05766
-4.05507
-4.05267
-4.18272
-4.18047
-4.17829
-4.17623
-4.30529
-4.30341
-4.30155
-4.29979
-4.42803
-4.42645
-4.42486
-4.42335
-4.55091
-4.54958
-4.54822
-4.54693
-4.67392
-4.6728
-4.67164
-4.67055
-4.79706
-4.79612
-4.79515
-4.79426
-4.92034
-4.91957
-4.91879
-4.91807
-5.04378
-5.04318
-5.04258
-5.04204
-5.16739
-5.16697
-5.16655
-5.1662
-5.2912
-5.29098
-5.29076
-5.29059
-5.41525
-5.41527
-5.41525
-5.41526
-5.53939
-5.53982
-5.54007
-5.54026
-5.66337
-5.66414
-5.66481
-5.66539
-3.79617
-2.73669
-2.10366
-1.7276
-1.48302
-1.3209
-1.20454
-1.11649
-1.04786
-0.993533
-0.950082
-0.915104
-0.886888
-0.86418
-0.846043
-0.83173
-0.820561
-0.811846
-0.805628
-4.0911
-2.92559
-2.10566
-1.68509
-1.46427
-1.33066
-1.23884
-1.17
-1.11583
-1.07272
-1.03794
-1.0097
-0.986713
-0.968002
-0.952816
-0.940517
-0.930488
-0.922206
-0.916
-3.47107
-2.48611
-1.82539
-1.52109
-1.38478
-1.30712
-1.25368
-1.21021
-1.17515
-1.14579
-1.12125
-1.10076
-1.08364
-1.06935
-1.05737
-1.04725
-1.03852
-1.03086
-1.02484
-1.75348
-1.59791
-1.38212
-1.29857
-1.28062
-1.27053
-1.25848
-1.24561
-1.23082
-1.21602
-1.20223
-1.18981
-1.17878
-1.16902
-1.16033
-1.15246
-1.14515
-1.13829
-1.13262
-0.537153
-0.919212
-1.05338
-1.13601
-1.20345
-1.24913
-1.27383
-1.28529
-1.28842
-1.28699
-1.2833
-1.27854
-1.27333
-1.26793
-1.26242
-1.25679
-1.25096
-1.245
-1.2398
-0.346366
-0.701372
-0.925933
-1.07584
-1.18475
-1.25923
-1.30648
-1.33529
-1.35219
-1.36166
-1.36652
-1.36844
-1.36839
-1.36693
-1.36436
-1.36085
-1.35648
-1.35149
-1.34682
-0.534809
-0.762702
-0.95498
-1.1052
-1.21981
-1.30264
-1.35986
-1.39859
-1.42459
-1.44194
-1.45338
-1.46065
-1.46488
-1.46677
-1.46677
-1.46518
-1.4622
-1.45818
-1.45407
-0.775839
-0.920308
-1.06566
-1.19235
-1.29521
-1.37424
-1.43281
-1.47552
-1.50646
-1.52878
-1.54475
-1.55595
-1.56346
-1.56804
-1.57018
-1.57025
-1.56854
-1.56543
-1.56188
-1.01972
-1.1104
-1.21414
-1.31258
-1.39775
-1.46735
-1.52228
-1.56485
-1.5975
-1.62232
-1.64097
-1.65474
-1.66457
-1.67115
-1.67497
-1.67642
-1.67581
-1.67355
-1.67054
-1.25394
-1.30763
-1.37782
-1.45039
-1.51756
-1.57595
-1.6248
-1.66471
-1.69677
-1.72216
-1.74197
-1.75714
-1.7684
-1.77635
-1.78141
-1.78395
-1.78426
-1.78274
-1.78024
-1.4716
-1.50004
-1.5451
-1.59658
-1.64785
-1.69527
-1.73716
-1.77302
-1.803
-1.82759
-1.8474
-1.86302
-1.87499
-1.88375
-1.88965
-1.89299
-1.89404
-1.89316
-1.89113
-1.67255
-1.68385
-1.71079
-1.74601
-1.78413
-1.82169
-1.85663
-1.88784
-1.91489
-1.93779
-1.95675
-1.97212
-1.98421
-1.99333
-1.99972
-2.00361
-2.00523
-2.00489
-2.00329
-1.85904
-1.85881
-1.87291
-1.89588
-1.92345
-1.95253
-1.98098
-2.00744
-2.03118
-2.05188
-2.06949
-2.08411
-2.09589
-2.105
-2.1116
-2.11582
-2.11785
-2.11796
-2.11674
-2.03348
-2.02566
-2.03074
-2.04461
-2.06385
-2.08581
-2.10847
-2.13044
-2.15081
-2.16909
-2.18504
-2.1986
-2.20978
-2.21862
-2.22519
-2.22957
-2.23188
-2.23234
-2.23146
-2.19783
-2.18526
-2.18409
-2.19126
-2.20403
-2.22015
-2.23782
-2.2557
-2.27287
-2.28872
-2.3029
-2.31524
-2.32562
-2.33401
-2.34038
-2.34477
-2.34724
-2.34799
-2.34742
-2.35374
-2.33828
-2.33299
-2.33534
-2.34316
-2.35459
-2.36808
-2.3824
-2.39665
-2.41019
-2.42262
-2.43366
-2.44315
-2.45095
-2.45701
-2.4613
-2.46386
-2.46482
-2.46452
-2.50232
-2.48555
-2.47766
-2.47665
-2.48079
-2.48856
-2.49863
-2.50993
-2.52161
-2.53305
-2.54381
-2.55357
-2.56211
-2.56927
-2.57493
-2.57905
-2.58161
-2.58274
-2.58268
-2.64471
-2.62778
-2.61846
-2.61523
-2.61673
-2.62171
-2.62908
-2.63787
-2.64735
-2.65692
-2.66614
-2.67468
-2.68228
-2.68876
-2.69398
-2.69786
-2.70039
-2.70164
-2.70179
-2.78201
-2.76572
-2.75586
-2.7513
-2.75099
-2.75392
-2.75917
-2.76595
-2.77359
-2.78153
-2.78936
-2.79675
-2.80345
-2.80925
-2.814
-2.81763
-2.82008
-2.82142
-2.82174
-2.91529
-2.90017
-2.89041
-2.88519
-2.88371
-2.88517
-2.88883
-2.894
-2.9001
-2.90665
-2.91325
-2.91959
-2.92543
-2.93057
-2.93486
-2.9382
-2.94055
-2.94198
-2.94242
-3.04556
-3.0319
-3.02265
-3.01724
-3.01508
-3.01554
-3.018
-3.02191
-3.02675
-3.03211
-3.03762
-3.04302
-3.04807
-3.05258
-3.05642
-3.05948
-3.06169
-3.06324
-3.06371
-3.17368
-3.16159
-3.1531
-3.14782
-3.14532
-3.14511
-3.1467
-3.14961
-3.15342
-3.15777
-3.16235
-3.1669
-3.17123
-3.17517
-3.17858
-3.18137
-3.18348
-3.18497
-3.18557
-3.30036
-3.28981
-3.28218
-3.27722
-3.27462
-3.27399
-3.27494
-3.27707
-3.28004
-3.28354
-3.28731
-3.29112
-3.2948
-3.29821
-3.30122
-3.30375
-3.30574
-3.30722
-3.30793
-3.4261
-3.41698
-3.41023
-3.40569
-3.40314
-3.40226
-3.40274
-3.40427
-3.40656
-3.40935
-3.41242
-3.41559
-3.4187
-3.42162
-3.42427
-3.42656
-3.42843
-3.42989
-3.4307
-3.55124
-3.54341
-3.5375
-3.53342
-3.53099
-3.52998
-3.53013
-3.5312
-3.53294
-3.53514
-3.53762
-3.54023
-3.54284
-3.54534
-3.54766
-3.54972
-3.55148
-3.55292
-3.55382
-3.67601
-3.6693
-3.66417
-3.66054
-3.65829
-3.65722
-3.65714
-3.65785
-3.65915
-3.66087
-3.66285
-3.66499
-3.66716
-3.6693
-3.67132
-3.67319
-3.67484
-3.67626
-3.67723
-3.80052
-3.79479
-3.79035
-3.78716
-3.7851
-3.78404
-3.7838
-3.78424
-3.78519
-3.78651
-3.78809
-3.78983
-3.79163
-3.79345
-3.79523
-3.79691
-3.79846
-3.79985
-3.80088
-3.92485
-3.91996
-3.91614
-3.91335
-3.9115
-3.91047
-3.91014
-3.91038
-3.91106
-3.91207
-3.91332
-3.91472
-3.91622
-3.91777
-3.91932
-3.92085
-3.92231
-3.92366
-3.92472
-4.04905
-4.04489
-4.04161
-4.03919
-4.03754
-4.03659
-4.03621
-4.03631
-4.03678
-4.03755
-4.03853
-4.03966
-4.0409
-4.04222
-4.04359
-4.04497
-4.04634
-4.04765
-4.04874
-4.17314
-4.16961
-4.16682
-4.16473
-4.16329
-4.16242
-4.16203
-4.16204
-4.16237
-4.16294
-4.16371
-4.16463
-4.16566
-4.16679
-4.16799
-4.16925
-4.17053
-4.17179
-4.17288
-4.29715
-4.29417
-4.29181
-4.29004
-4.28881
-4.28803
-4.28766
-4.28762
-4.28784
-4.28828
-4.28889
-4.28963
-4.29049
-4.29146
-4.29252
-4.29367
-4.29486
-4.29607
-4.29715
-4.42111
-4.41862
-4.41665
-4.41517
-4.41414
-4.41348
-4.41314
-4.41308
-4.41324
-4.41358
-4.41406
-4.41467
-4.41539
-4.41622
-4.41716
-4.4182
-4.41931
-4.42045
-4.4215
-4.54504
-4.543
-4.54139
-4.54018
-4.53934
-4.5388
-4.53852
-4.53846
-4.53858
-4.53885
-4.53924
-4.53974
-4.54035
-4.54107
-4.5419
-4.54283
-4.54385
-4.54492
-4.54594
-4.669
-4.66735
-4.66608
-4.66513
-4.66446
-4.66405
-4.66383
-4.66379
-4.6639
-4.66412
-4.66444
-4.66486
-4.66538
-4.666
-4.66672
-4.66756
-4.66849
-4.66948
-4.67045
-4.79301
-4.79173
-4.79076
-4.79005
-4.78956
-4.78926
-4.78912
-4.78911
-4.78921
-4.7894
-4.78967
-4.79002
-4.79046
-4.79099
-4.79162
-4.79236
-4.7932
-4.79411
-4.79501
-4.91712
-4.91619
-4.9155
-4.91501
-4.91468
-4.91449
-4.91441
-4.91443
-4.91453
-4.9147
-4.91493
-4.91523
-4.9156
-4.91605
-4.91659
-4.91723
-4.91798
-4.91879
-4.91962
-5.04137
-5.04076
-5.04033
-5.04003
-5.03985
-5.03976
-5.03974
-5.03979
-5.03989
-5.04004
-5.04024
-5.04048
-5.04079
-5.04116
-5.04162
-5.04216
-5.0428
-5.04351
-5.04425
-5.1658
-5.16549
-5.16529
-5.16517
-5.16511
-5.1651
-5.16513
-5.1652
-5.1653
-5.16543
-5.16559
-5.16579
-5.16603
-5.16633
-5.16669
-5.16713
-5.16766
-5.16826
-5.1689
-5.29045
-5.29042
-5.29041
-5.29043
-5.29047
-5.29052
-5.29058
-5.29066
-5.29074
-5.29085
-5.29097
-5.29112
-5.2913
-5.29152
-5.2918
-5.29213
-5.29253
-5.29301
-5.29354
-5.41537
-5.41559
-5.41577
-5.4159
-5.416
-5.41608
-5.41615
-5.41622
-5.41628
-5.41635
-5.41643
-5.41652
-5.41663
-5.41677
-5.41693
-5.41714
-5.41741
-5.41775
-5.41815
-5.54062
-5.54114
-5.54149
-5.54172
-5.54188
-5.54197
-5.54203
-5.54205
-5.54207
-5.54208
-5.54208
-5.54209
-5.54211
-5.54213
-5.54216
-5.54221
-5.54229
-5.54245
-5.54268
-5.66617
-5.66684
-5.66727
-5.66753
-5.66767
-5.66775
-5.66777
-5.66775
-5.66772
-5.66767
-5.66761
-5.66754
-5.66747
-5.6674
-5.66732
-5.66724
-5.66716
-5.66713
-5.66715
)
;

boundaryField
{
    leftWall
    {
        type            calculated;
        value           nonuniform List<scalar> 
50
(
2229.35
2168.33
2107.17
2045.29
1982.67
1919.38
1855.45
1790.93
1689.32
1549.24
1408.03
1266.55
1125.69
986.233
848.781
713.764
581.726
452.535
323.937
195.609
76.1155
8.92471
-3.19579
-2.98337
-3.04884
-3.11008
-3.19308
-3.27822
-3.36198
-3.44609
-3.53243
-3.62239
-3.71662
-3.81521
-3.91799
-4.02463
-4.13463
-4.24742
-4.36249
-4.4794
-4.5978
-4.71746
-4.83821
-4.95984
-5.08187
-5.20399
-5.32696
-5.45127
-5.57221
-5.68054
)
;
    }
    rightWall
    {
        type            calculated;
        value           nonuniform List<scalar> 
50
(
-0.33523
-0.392852
-0.449793
-0.505885
-0.561183
-0.615764
-0.669697
-0.723044
-0.805628
-0.916
-1.02484
-1.13262
-1.2398
-1.34682
-1.45407
-1.56188
-1.67054
-1.78024
-1.89113
-2.00329
-2.11674
-2.23146
-2.34742
-2.46452
-2.58268
-2.70179
-2.82174
-2.94242
-3.06371
-3.18557
-3.30793
-3.4307
-3.55382
-3.67723
-3.80088
-3.92472
-4.04874
-4.17288
-4.29715
-4.4215
-4.54594
-4.67045
-4.79501
-4.91962
-5.04425
-5.1689
-5.29354
-5.41815
-5.54268
-5.66715
)
;
    }
    lowerWall
    {
        type            calculated;
        value           nonuniform List<scalar> 
62
(
2258.78
2269.08
2273.96
2272.52
2262.79
2243.94
2215.53
2176.95
2127.24
2065.25
1989.6
1898.81
1791.42
1666.57
1524.97
1370.7
1214.89
1081.76
1025.44
1109.94
1417.74
1976.87
2718.6
2696.55
2682.66
2371.07
1619.64
768.369
239.719
61.5254
23.5584
-7.31028
-5.95129
-5.78432
-5.30926
-1.65638
-1.73125
-1.82722
-1.94756
-2.09794
-2.28817
-2.53769
-2.8674
-1.62696
-1.54339
-1.40155
-1.23416
-1.07331
-0.930208
-0.808137
-0.706108
-0.621702
-0.552431
-0.495549
-0.449185
-0.411485
-0.380975
-0.356518
-0.337204
-0.322487
-0.312222
-0.305801
)
;
    }
    atmosphere
    {
        type            calculated;
        value           nonuniform List<scalar> 
46
(
-5.75072
-5.76974
-5.76438
-5.76119
-5.75856
-5.75609
-5.75364
-5.75113
-5.74856
-5.74597
-5.7434
-5.74091
-5.73856
-5.73641
-5.73449
-5.73285
-5.73149
-5.73043
-5.72967
-5.72922
-5.72905
-5.72904
-5.72904
-5.72904
-5.72904
-5.72904
-5.72904
-5.72904
-5.72904
-5.72904
-5.72904
-5.72904
-5.72904
-5.72904
-5.72904
-5.72904
-5.72904
-5.72904
-5.72904
-5.72904
-5.72904
-5.72904
-5.72904
-5.72904
-5.72904
-5.72904
)
;
    }
    defaultFaces
    {
        type            empty;
    }
}


// ************************************************************************* //
