/*--------------------------------*- C++ -*----------------------------------*\
| =========                 |                                                 |
| \\      /  F ield         | OpenFOAM: The Open Source CFD Toolbox           |
|  \\    /   O peration     | Version:  v2012                                 |
|   \\  /    A nd           | Website:  www.openfoam.com                      |
|    \\/     M anipulation  |                                                 |
\*---------------------------------------------------------------------------*/
FoamFile
{
    version     2.0;
    format      ascii;
    class       volScalarField;
    location    "0.15";
    object      p_rgh;
}
// * * * * * * * * * * * * * * * * * * * * * * * * * * * * * * * * * * * * * //

dimensions      [1 -1 -2 0 0 0 0];


internalField   nonuniform List<scalar> 
2268
(
2258.78
2269.08
2273.96
2272.52
2262.79
2243.94
2215.53
2176.95
2127.24
2065.25
1989.6
1898.81
1791.42
1666.57
1524.97
1370.7
1214.89
1081.76
1025.44
1109.94
1417.74
1976.87
2718.6
2256.62
2264.78
2266.57
2262.45
2250.79
2230.34
2200.46
2160.37
2108.98
2045.04
1967.11
1873.68
1763.37
1635.49
1491
1334.4
1176.86
1041.06
963.786
1016.59
1283.77
1838.82
2753.07
2254.32
2261.57
2260.28
2252.86
2238.34
2215.31
2182.98
2140.4
2086.35
2019.44
1938.22
1841.19
1727.13
1595.57
1447.84
1288.71
1129.07
989.19
899.565
905.447
1071.34
1463.88
2509.77
2251.3
2258.71
2255.44
2245.32
2228.08
2202.4
2167.45
2122.2
2065.32
1995.37
1910.84
1810.28
1692.58
1557.43
1406.33
1243.93
1080.21
931.931
820.049
765.88
792.545
873.892
1805.94
2247.54
2255.38
2251.02
2239.07
2219.73
2191.82
2154.59
2106.94
2047.53
1974.86
1887.41
1783.73
1662.73
1524.18
1369.51
1203.02
1033.38
873.06
732.831
610.79
470.453
327.163
978.912
2243.1
2251.38
2246.39
2233.24
2212.37
2182.72
2143.6
2093.92
2032.31
1957.26
1867.23
1760.74
1636.7
1494.84
1336.49
1165.53
989.205
815.315
647.343
434.749
186.064
97.6764
423.666
2238.03
2246.67
2241.34
2227.4
2205.47
2174.52
2133.88
2082.51
2019.03
1941.91
1849.58
1740.53
1613.63
1468.56
1306.59
1131.28
948.221
760.476
543.984
236.246
47.6167
35.5859
102.084
2232.37
2241.08
2235.67
2221.29
2198.69
2166.86
2125.1
2072.4
2007.39
1928.54
1834.24
1722.92
1593.39
1445.28
1279.86
1100.3
909.845
710.472
394.028
73.5573
14.7708
14.9714
26.8251
-1.62696
-1.54339
-1.40155
-1.23416
-1.07331
-0.930208
-0.808137
-0.706108
-0.621702
-0.552431
-0.495549
-0.449185
-0.411485
-0.380975
-0.356518
-0.337204
-0.322487
-0.312222
-0.305801
-1.64296
-1.55544
-1.4109
-1.23968
-1.0759
-0.930621
-0.807135
-0.704283
-0.619478
-0.549856
-0.492993
-0.446646
-0.408988
-0.378528
-0.354148
-0.334969
-0.32049
-0.310573
-0.304564
-1.68007
-1.57804
-1.42406
-1.24491
-1.07641
-0.928208
-0.803183
-0.699659
-0.614713
-0.545261
-0.488643
-0.442586
-0.405221
-0.375038
-0.350937
-0.332079
-0.317984
-0.308428
-0.302647
-1.74155
-1.61326
-1.44095
-1.24835
-1.07306
-0.921577
-0.795336
-0.69168
-0.607153
-0.538372
-0.482453
-0.43706
-0.400297
-0.370653
-0.347044
-0.328655
-0.314994
-0.305675
-0.299879
-1.83308
-1.66454
-1.46108
-1.2492
-1.0651
-0.910193
-0.783269
-0.680177
-0.596728
-0.529179
-0.474439
-0.430097
-0.394247
-0.365391
-0.342455
-0.324638
-0.311415
-0.302227
-0.296319
-1.96445
-1.72587
-1.48282
-1.24637
-1.05175
-0.893615
-0.766761
-0.665064
-0.583421
-0.517695
-0.464614
-0.421705
-0.387065
-0.359222
-0.337118
-0.319957
-0.307172
-0.298071
-0.292041
-2.15511
-1.79792
-1.50532
-1.23908
-1.03225
-0.871385
-0.745602
-0.646279
-0.567241
-0.503956
-0.453021
-0.411921
-0.378778
-0.352159
-0.331029
-0.314598
-0.30226
-0.293243
-0.287115
-2.42596
-1.90148
-1.53136
-1.22777
-1.0061
-0.843156
-0.719693
-0.623846
-0.548262
-0.488057
-0.439751
-0.400828
-0.369455
-0.344255
-0.324226
-0.308589
-0.296705
-0.287789
-0.281603
2222.79
2230.8
2225.64
2210.96
2187.8
2155.21
2112.34
2058.2
1991.47
1910.59
1813.9
1699.73
1566.74
1414.59
1244.42
1057.37
853.866
578.439
153.289
7.05062
4.63512
4.22029
2.83299
2207.9
2214.83
2209.59
2195.12
2172.07
2139.46
2096.34
2041.65
1974.06
1891.98
1793.64
1677.22
1541.37
1385.77
1210.43
1012.45
758.723
226.062
5.94486
2.39575
2.00504
1.79596
1.5122
2191.88
2197.33
2191.9
2177.95
2155.57
2123.69
2081.27
2027.19
1960.06
1878.2
1779.71
1662.7
1525.91
1368.71
1187.34
980.645
416.58
12.8551
1.83248
1.24959
1.36221
1.38322
1.98199
2175.61
2179.44
2173.89
2160.63
2139.28
2108.65
2067.68
2015.17
1949.65
1869.35
1772.26
1656.47
1520.87
1362.99
1173.69
750.436
79.7824
1.86216
0.722383
0.815902
1.02243
1.08656
1.51384
2159.94
2162.2
2156.7
2144.3
2124.21
2095.26
2056.34
2006.22
1943.37
1865.94
1771.8
1659.19
1526.62
1367.08
1161.72
321.393
3.48901
0.512773
0.379043
0.579062
0.773965
0.892555
1.18836
2145.67
2146.51
2141.27
2129.86
2111.26
2084.33
2047.99
2001.01
1941.83
1868.54
1779
1671.57
1543.14
1380.88
841.574
54.6211
0.710378
0.0772715
0.212606
0.398438
0.588419
0.7546
0.988226
2133.42
2133.01
2128.25
2117.97
2101.06
2076.48
2043.2
2000.05
1945.51
1877.67
1794.45
1693.95
1569.15
1410.54
404.786
2.33856
-0.0644455
-0.100321
0.077123
0.249649
0.438265
0.616322
0.803082
2123.59
2122.13
2118.07
2109.06
2094.05
2072.11
2042.32
2003.64
1954.7
1893.7
1818.75
1726.98
1605.62
1159.58
104.711
0.172442
-0.324208
-0.200982
-0.0448199
0.123748
0.307779
0.478446
0.630459
2116.75
2114.27
2111.17
2103.54
2090.6
2071.54
2045.61
2011.98
1969.51
1916.7
1851.88
1770.73
1657.81
712.856
4.65789
-0.444215
-0.432419
-0.287126
-0.145881
0.0180868
0.19217
0.349607
0.476711
2112.74
2109.05
2107.37
2101.41
2090.74
2074.76
2052.92
2024.67
1989.24
1945.6
1892.37
1823.44
1691.38
314.208
0.465374
-0.585802
-0.499104
-0.37154
-0.233881
-0.0737389
0.0884207
0.233643
0.342757
2109.23
2104.75
2105.26
2101.56
2093.35
2080.44
2062.61
2039.68
2011.41
1977.67
1938.09
1885.53
1372.36
94.0229
-0.481719
-0.699954
-0.589639
-0.462608
-0.314717
-0.15434
-0.000591422
0.130806
0.229133
2104.87
2103.99
2105.85
2104.17
2098.15
2088.03
2074.02
2056.4
2035.68
2013.03
1989.97
1960.72
964.972
12.9162
-0.962142
-0.790754
-0.671577
-0.535415
-0.378926
-0.220159
-0.0748102
0.0462443
0.136872
1905.66
1995.86
2046.93
2077.38
2086.17
2077.18
2053.38
2005.52
1919.47
1776.9
1602.82
1622.86
463.545
-0.532426
-1.05372
-0.847952
-0.725646
-0.580135
-0.421313
-0.267983
-0.131761
-0.0197044
0.0648787
446.978
625.524
769.711
908.833
984.978
966.787
880.727
726.69
537.098
340.216
181.003
185.701
58.2537
-1.18698
-1.04247
-0.899753
-0.760638
-0.602338
-0.443928
-0.298107
-0.171554
-0.0681938
0.0106663
-0.909597
0.276234
-0.553919
-0.790327
-0.919558
-0.995476
-1.05827
-1.12866
-1.21528
-1.26057
-1.22173
-1.16915
-1.26153
-0.624837
-1.08961
-0.917021
-0.759865
-0.598692
-0.446669
-0.311142
-0.195403
-0.101173
-0.0285262
-0.57199
-0.488295
-0.543567
-0.543344
-0.56852
-0.611986
-0.674457
-0.756858
-0.849193
-0.946898
-1.0423
-1.13267
-1.19314
-0.951012
-1.02548
-0.868338
-0.716164
-0.567127
-0.429646
-0.308324
-0.205129
-0.12086
-0.0551578
-0.512264
-0.452257
-0.497664
-0.521107
-0.56133
-0.609104
-0.666049
-0.732277
-0.803674
-0.875815
-0.943319
-1.0002
-1.02171
-1.00355
-0.902525
-0.774791
-0.643665
-0.515798
-0.3977
-0.293011
-0.203448
-0.129686
-0.0714254
-0.448305
-0.429167
-0.464801
-0.491746
-0.533211
-0.577728
-0.625547
-0.67723
-0.731279
-0.784315
-0.831284
-0.865844
-0.880221
-0.848964
-0.770165
-0.668629
-0.561224
-0.455777
-0.35752
-0.269544
-0.193507
-0.130164
-0.0794138
-0.406115
-0.408651
-0.433448
-0.459304
-0.492444
-0.528323
-0.566077
-0.605644
-0.646096
-0.68483
-0.717472
-0.738788
-0.739842
-0.709145
-0.646596
-0.566239
-0.479958
-0.394595
-0.31431
-0.241683
-0.178212
-0.124671
-0.0811227
-0.366055
-0.377462
-0.398851
-0.422296
-0.448519
-0.476046
-0.504344
-0.533198
-0.561865
-0.588302
-0.608994
-0.61934
-0.613276
-0.584933
-0.535212
-0.472276
-0.404071
-0.335949
-0.271274
-0.212184
-0.159955
-0.115312
-0.0784231
-0.32462
-0.340284
-0.360659
-0.381575
-0.402519
-0.423179
-0.443468
-0.463287
-0.482069
-0.498318
-0.509408
-0.511969
-0.502143
-0.477026
-0.43761
-0.388721
-0.335514
-0.281894
-0.23051
-0.18308
-0.140652
-0.103871
-0.072972
-0.283541
-0.300592
-0.320381
-0.339156
-0.356143
-0.371488
-0.385425
-0.398061
-0.409069
-0.417475
-0.421546
-0.41902
-0.407564
-0.385775
-0.354515
-0.316685
-0.275552
-0.233831
-0.193496
-0.155867
-0.121767
-0.0917595
-0.0661176
-0.244685
-0.261439
-0.280324
-0.297228
-0.311243
-0.322656
-0.33186
-0.339139
-0.34444
-0.347243
-0.346517
-0.340903
-0.329097
-0.310464
-0.285641
-0.256377
-0.224727
-0.192508
-0.161109
-0.131492
-0.104287
-0.0799737
-0.0588453
-0.209449
-0.225147
-0.242654
-0.257792
-0.26952
-0.278101
-0.283944
-0.28745
-0.288812
-0.287879
-0.284148
-0.276906
-0.265496
-0.249672
-0.22988
-0.20717
-0.182813
-0.157982
-0.133611
-0.110374
-0.0887411
-0.0691151
-0.0517892
-0.178486
-0.19282
-0.208695
-0.222136
-0.232034
-0.238565
-0.242095
-0.243092
-0.241923
-0.238709
-0.233315
-0.225455
-0.214857
-0.201462
-0.185575
-0.16782
-0.148963
-0.129745
-0.110774
-0.0925074
-0.0752906
-0.0594602
-0.0452906
-0.15188
-0.164767
-0.178951
-0.190786
-0.199168
-0.204188
-0.206175
-0.205622
-0.202992
-0.198574
-0.192467
-0.184642
-0.175039
-0.163688
-0.150798
-0.136741
-0.121971
-0.106947
-0.0920562
-0.0776049
-0.0638456
-0.0510549
-0.0394754
-0.129469
-0.140931
-0.153455
-0.163792
-0.170887
-0.17478
-0.175778
-0.174365
-0.171028
-0.166142
-0.159932
-0.152506
-0.143916
-0.134237
-0.123621
-0.112296
-0.100533
-0.0886179
-0.0767871
-0.0652452
-0.0541768
-0.0438051
-0.0343339
-0.110911
-0.121012
-0.131971
-0.140931
-0.146923
-0.149973
-0.150364
-0.14854
-0.144972
-0.140059
-0.134078
-0.127205
-0.119551
-0.111212
-0.102311
-0.0930004
-0.0834555
-0.073835
-0.0642988
-0.0549783
-0.0460038
-0.0375538
-0.0297918
-0.0957151
-0.104552
-0.114077
-0.121792
-0.126846
-0.12926
-0.129281
-0.127303
-0.123762
-0.119042
-0.113435
-0.107143
-0.100306
-0.0930363
-0.0854386
-0.0776257
-0.0697143
-0.061811
-0.0540103
-0.0463941
-0.0390559
-0.0321357
-0.0257597
-0.0833155
-0.0910158
-0.0992509
-0.105858
-0.110115
-0.112031
-0.111815
-0.10981
-0.106409
-0.101968
-0.0967711
-0.0910281
-0.0848913
-0.0784779
-0.0718875
-0.0652107
-0.0585315
-0.0519259
-0.0454488
-0.0391531
-0.0331027
-0.0274057
-0.0221558
-0.073186
-0.0798796
-0.0869616
-0.0925948
-0.0961679
-0.0976738
-0.0972852
-0.0953028
-0.0920748
-0.0879265
-0.0831257
-0.077878
-0.0723376
-0.0666228
-0.0608288
-0.055035
-0.0493071
-0.0436986
-0.0382491
-0.0329881
-0.0279585
-0.0232431
-0.0189085
-0.0648977
-0.070694
-0.0767535
-0.0815347
-0.0845093
-0.0856561
-0.0851205
-0.0831663
-0.080104
-0.0762287
-0.0717887
-0.0669791
-0.0619495
-0.0568153
-0.0516676
-0.046578
-0.0416013
-0.0367774
-0.0321344
-0.0276899
-0.0234722
-0.019545
-0.0159529
-0.0581105
-0.0631108
-0.0682737
-0.0723098
-0.0747472
-0.0755589
-0.0748735
-0.0729288
-0.0700049
-0.0663694
-0.0622488
-0.0578234
-0.0532341
-0.0485906
-0.0439787
-0.0394629
-0.0350899
-0.030891
-0.0268862
-0.0230884
-0.0195169
-0.0162225
-0.0132334
-0.0525716
-0.0568798
-0.06126
-0.0646379
-0.0665747
-0.0670502
-0.066193
-0.0642269
-0.0614079
-0.0579758
-0.0541331
-0.050043
-0.0458348
-0.0416104
-0.0374482
-0.0334058
-0.0295228
-0.0258252
-0.0223286
-0.0190435
-0.0159871
-0.0132035
-0.01071
-0.0481252
-0.0518178
-0.0555024
-0.0582828
-0.0597275
-0.0598454
-0.0587855
-0.0567663
-0.0540201
-0.0507572
-0.0471541
-0.0433555
-0.0394779
-0.035613
-0.0318307
-0.0281815
-0.0246999
-0.0214077
-0.0183185
-0.0154422
-0.0127993
-0.0104356
-0.00836157
-0.0445623
-0.0477261
-0.0507865
-0.0530129
-0.0539513
-0.0536805
-0.052389
-0.050292
-0.0475936
-0.0444713
-0.0410754
-0.037531
-0.0339408
-0.0303857
-0.026927
-0.0236088
-0.0204611
-0.017503
-0.0147457
-0.0121987
-0.00989031
-0.00788158
-0.00618072
-0.0413972
-0.0443827
-0.0468941
-0.0485943
-0.0489956
-0.0483044
-0.0467644
-0.0445782
-0.0419136
-0.038913
-0.0356996
-0.0323797
-0.0290419
-0.0257571
-0.0225789
-0.0195464
-0.0166857
-0.014012
-0.0115312
-0.0092497
-0.00720776
-0.00550938
-0.00416478
-0.0383237
-0.0418144
-0.0437202
-0.044831
-0.0446319
-0.043494
-0.0417067
-0.0394382
-0.0368078
-0.0339203
-0.0308731
-0.027755
-0.0246427
-0.0215985
-0.018671
-0.0158949
-0.0132916
-0.0108697
-0.0086252
-0.00655187
-0.00470428
-0.00328704
-0.00231467
-0.036105
-0.0405932
-0.0413399
-0.0415737
-0.0406792
-0.0390953
-0.037091
-0.0347656
-0.0321799
-0.0294019
-0.0265072
-0.0235707
-0.0206608
-0.0178349
-0.015138
-0.0126011
-0.0102395
-0.00805177
-0.00601691
-0.00409247
-0.00232767
-0.00116249
-0.000638456
-0.0352118
-0.0423475
-0.0401362
-0.0386953
-0.0370332
-0.0350914
-0.0329399
-0.0305909
-0.0280551
-0.0253738
-0.0226085
-0.0198268
-0.0170929
-0.0144626
-0.0119794
-0.0096708
-0.00754488
-0.00558894
-0.00374452
-0.0018386
0.000196847
0.00122192
0.000977578
-0.0309605
-0.0512877
-0.0409124
-0.0361933
-0.0337586
-0.0316031
-0.0293677
-0.0270018
-0.0244953
-0.0218784
-0.0192073
-0.0165469
-0.0139607
-0.0115046
-0.00922145
-0.00713576
-0.00524807
-0.00352732
-0.0018212
0.000462854
0.00400156
0.00512651
0.00307951
-0.0140981
-0.0675818
-0.0419499
-0.0341853
-0.0310626
-0.0286013
-0.0262062
-0.023759
-0.0212267
-0.0186326
-0.0160286
-0.0134764
-0.0110373
-0.00876513
-0.00670049
-0.00486269
-0.00323721
-0.00175224
-0.000145548
0.00270436
0.0092765
0.00925348
0.00472202
-5.55738
-5.4804
-5.31344
-4.83839
1.49207
-3.99056
-4.80877
-4.45199
2.72132
0.410106
-2.33414
-3.24149
1.23
1.29713
1.19244
0.385005
1.27184
1.23486
1.28611
1.28268
1.10154
1.1354
1.12449
1.05626
0.885965
0.913161
0.912813
0.876634
0.694413
0.717092
0.720538
0.701992
0.52912
0.549434
0.556368
0.549355
0.388664
0.408415
0.418718
0.419651
0.272675
0.293371
0.307093
0.31387
0.179778
0.201772
0.218313
0.229245
0.107417
0.130261
0.148618
0.16221
0.0522525
0.0752309
0.0944211
0.109493
0.0111342
0.0334975
0.0527174
0.0684362
-0.018295
0.00284221
0.0214286
0.0370834
-0.0379238
-0.0184284
-0.000978035
0.0140398
-0.0495272
-0.0319196
-0.0159648
-0.00203056
-0.0548715
-0.0392613
-0.0250204
-0.0124701
-0.0556789
-0.042068
-0.0296225
-0.0186022
-0.0535107
-0.0418164
-0.0311292
-0.0216467
-0.0496505
-0.0397279
-0.0306741
-0.0226346
-0.0450461
-0.036712
-0.0291147
-0.0223616
-0.0403184
-0.0333722
-0.0270332
-0.0213846
-0.0358141
-0.0300542
-0.0247766
-0.0200519
-0.0316779
-0.0269143
-0.0225179
-0.0185545
-0.0279304
-0.0239934
-0.0203224
-0.0169835
-0.0245353
-0.0212795
-0.018204
-0.0153781
-0.0214433
-0.0187459
-0.0161585
-0.0137554
-0.0186077
-0.0163648
-0.0141768
-0.0121235
-0.0159846
-0.0141094
-0.0122484
-0.0104875
-0.0135332
-0.0119556
-0.0103656
-0.00885443
-0.011222
-0.00988895
-0.00853002
-0.00723948
-0.00903621
-0.00791118
-0.00675709
-0.00566839
-0.00697881
-0.00603898
-0.0050739
-0.00417511
-0.00506375
-0.00429749
-0.00351313
-0.00279684
-0.00330703
-0.00271286
-0.00210776
-0.00157057
-0.00172395
-0.00131017
-0.000890368
-0.000533314
-0.000342656
-0.000124422
9.99808e-05
0.000273797
0.000800074
0.000780364
0.000802263
0.000795542
0.00185937
0.00142423
0.00118267
0.000986393
0.00307515
0.00230573
0.00163126
0.00104787
-3.2627
-2.20322
-1.57019
-1.19413
-0.949552
-0.787432
-0.671069
-0.583024
-0.514395
-0.460066
-0.416615
-0.381637
-0.353421
-0.330713
-0.312576
-0.298263
-0.287094
-0.278379
-0.272161
-3.43218
-2.26675
-1.44697
-1.02643
-0.805609
-0.672003
-0.580181
-0.511338
-0.457172
-0.41406
-0.379282
-0.351042
-0.328051
-0.30934
-0.294155
-0.281855
-0.271826
-0.263545
-0.257338
-2.6865
-1.70173
-1.04149
-0.73723
-0.600926
-0.523263
-0.469826
-0.426354
-0.391289
-0.361938
-0.337395
-0.3169
-0.299789
-0.285493
-0.273515
-0.263393
-0.254662
-0.247003
-0.240984
-0.748709
-0.687044
-0.47292
-0.389513
-0.371566
-0.361482
-0.349428
-0.336561
-0.321773
-0.306966
-0.293177
-0.280756
-0.269728
-0.259969
-0.251279
-0.243414
-0.236102
-0.229236
-0.223569
0.675898
0.11639
-0.01902
-0.101755
-0.169207
-0.214885
-0.239583
-0.251044
-0.254173
-0.252748
-0.249052
-0.244295
-0.239081
-0.233682
-0.228178
-0.222547
-0.216712
-0.210756
-0.205555
0.837675
0.463645
0.233538
0.0836034
-0.0253099
-0.0997915
-0.147041
-0.175847
-0.192746
-0.202218
-0.207078
-0.208998
-0.208949
-0.207489
-0.20492
-0.201407
-0.197039
-0.192048
-0.187379
0.750047
0.522455
0.329696
0.179437
0.0648249
-0.0180063
-0.0752222
-0.113953
-0.139951
-0.157307
-0.168743
-0.176015
-0.180243
-0.182135
-0.182138
-0.180545
-0.177569
-0.173542
-0.169434
0.634014
0.489526
0.344172
0.217483
0.114623
0.035584
-0.0229843
-0.0656864
-0.0966271
-0.118952
-0.134922
-0.146119
-0.153634
-0.158209
-0.160351
-0.160423
-0.158711
-0.155604
-0.152055
0.51531
0.424625
0.320887
0.222442
0.137273
0.0676779
0.0127428
-0.0298313
-0.0624781
-0.0872944
-0.105949
-0.119718
-0.129548
-0.136126
-0.13995
-0.1414
-0.14079
-0.138525
-0.135516
0.406281
0.352591
0.282402
0.209824
0.142658
0.0842713
0.0354164
-0.00449364
-0.036551
-0.0619391
-0.0817513
-0.0969179
-0.108187
-0.116133
-0.121197
-0.123732
-0.124043
-0.122525
-0.120023
0.313814
0.285377
0.240316
0.188834
0.137567
0.0901416
0.0482478
0.0123895
-0.0175915
-0.0421805
-0.0619835
-0.0776039
-0.0895751
-0.0983351
-0.104236
-0.107575
-0.108626
-0.10775
-0.105717
0.23806
0.226757
0.199813
0.1646
0.126482
0.0889125
0.0539765
0.0227707
-0.00428149
-0.0271783
-0.046148
-0.0615138
-0.0736071
-0.0827227
-0.0891119
-0.0930032
-0.0946208
-0.094285
-0.0926788
0.176758
0.176989
0.162893
0.13992
0.112351
0.0832726
0.0548238
0.028357
0.00461717
-0.0160794
-0.0336872
-0.0483056
-0.0600906
-0.0692032
-0.0757945
-0.080019
-0.0820482
-0.0821558
-0.0809348
0.127516
0.135339
0.130256
0.116386
0.0971413
0.0751844
0.0525222
0.0305587
0.0101866
-0.00809249
-0.0240465
-0.0376064
-0.0487852
-0.0576281
-0.0641957
-0.0685729
-0.0708801
-0.0713446
-0.0704686
0.0883631
0.100935
0.102098
0.0949255
0.0821581
0.0660422
0.0483713
0.0304878
0.0133231
-0.00252715
-0.0167132
-0.0290462
-0.0394297
-0.0478158
-0.0541897
-0.0585767
-0.0610516
-0.0617977
-0.061229
0.0576494
0.0731012
0.078394
0.0760413
0.0682213
0.0567902
0.0433022
0.0289828
0.0147366
0.00119205
-0.0112354
-0.0222782
-0.0317619
-0.0395694
-0.0456284
-0.0499169
-0.0524715
-0.0534354
-0.0531387
0.0342575
0.0510246
0.0589192
0.0599323
0.0557876
0.0480205
0.0379456
0.0266481
0.0149688
0.00352904
-0.00722791
-0.0169893
-0.0255309
-0.0326899
-0.0383537
-0.0424657
-0.0450323
-0.046161
-0.0461031
0.0170624
0.0339969
0.0433137
0.046544
0.0450459
0.0400648
0.0326986
0.0238994
0.0144199
0.00484923
-0.00436903
-0.0129039
-0.0205055
-0.0269853
-0.0322068
-0.0360897
-0.0386178
-0.0398688
-0.0400171
0.00496115
0.0212519
0.0311055
0.0356646
0.0359803
0.0330516
0.0277938
0.0210138
0.0133805
0.00543707
-0.00239354
-0.00978423
-0.0164779
-0.0222774
-0.0270351
-0.0306565
-0.0331098
-0.0344517
-0.0347717
-0.00312518
0.0119943
0.0217535
0.0269743
0.0284558
0.0269919
0.0233342
0.018162
0.0120602
0.00551474
-0.00108345
-0.0074284
-0.0132656
-0.018405
-0.0226968
-0.0260396
-0.0283904
-0.0298119
-0.0302553
-0.00819987
0.00545819
0.0147068
0.0201133
0.0222753
0.0218187
0.0193546
0.0154503
0.0106076
0.00525229
-0.000265525
-0.00566307
-0.0107102
-0.0152249
-0.0190639
-0.022122
-0.0243327
-0.0258794
-0.0263515
-0.011131
0.000960831
0.00945642
0.0147319
0.0172287
0.0174375
0.0158521
0.0129414
0.0091292
0.00478155
0.000204591
-0.00435041
-0.00867822
-0.0126132
-0.0160238
-0.0188134
-0.0209283
-0.0224155
-0.0230228
-0.0126128
-0.00206098
0.00557132
0.010525
0.0131243
0.0137532
0.0128083
0.0106737
0.00770195
0.00420246
0.000437418
-0.00337552
-0.00705741
-0.0104625
-0.013474
-0.0160037
-0.0179982
-0.0194702
-0.0201834
-0.0131569
-0.0040371
0.00271382
0.00724743
0.00980326
0.0106818
0.0102
0.00866949
0.00638024
0.00358989
0.000519316
-0.00264667
-0.00575575
-0.00868363
-0.0113299
-0.0136158
-0.0154896
-0.01695
-0.0177618
-0.0131081
-0.00527227
0.00063615
0.00471411
0.00714103
0.00815276
0.00800178
0.00693885
0.00520024
0.00299817
0.000516137
-0.0020919
-0.00469955
-0.00720422
-0.00952235
-0.0115854
-0.0133448
-0.014788
-0.0156871
-0.0126804
-0.00597034
-0.000836311
0.00278816
0.00504028
0.00610599
0.00618599
0.00548121
0.00418286
0.00246426
0.000475835
-0.00165671
-0.00383141
-0.00596645
-0.00799445
-0.00985721
-0.0115099
-0.0129299
-0.0139003
-0.0119986
-0.00626446
-0.00182631
0.00136679
0.00342216
0.00448728
0.00472192
0.0042868
0.00333607
0.00201015
0.00043064
-0.00130213
-0.00310841
-0.00492531
-0.00670023
-0.00838463
-0.00993763
-0.0113284
-0.0123532
-0.0111351
-0.00624356
-0.00242347
0.000368812
0.00221902
0.00324518
0.00357515
0.00333768
0.00265666
0.00164489
0.00039907
-0.00100262
-0.00249995
-0.00404651
-0.00560267
-0.00712867
-0.00858772
-0.00994248
-0.011005
-0.010135
-0.00597118
-0.00269779
-0.000274323
0.00136931
0.00232886
0.00270755
0.00260883
0.00213193
0.00136651
0.000388204
-0.000743681
-0.00198535
-0.00330433
-0.00467206
-0.00605678
-0.00742599
-0.00873788
-0.00982172
-0.00902989
-0.00549722
-0.0027086
-0.000624328
0.000814537
0.00168709
0.00207761
0.0020694
0.00174154
0.00116452
0.000396431
-0.000518947
-0.00155129
-0.00267955
-0.0038846
-0.00514204
-0.00642396
-0.00768593
-0.00877535
-0.00784577
-0.00486552
-0.00251031
-0.000739658
0.000497606
0.00126813
0.00164138
0.00168447
0.00145999
0.00102272
0.000416497
-0.000327375
-0.00118933
-0.00215762
-0.00322118
-0.00436242
-0.00555826
-0.00676324
-0.0078433
-0.0066092
-0.00411916
-0.00215592
-0.000677302
0.000362443
0.00102035
0.00135401
0.0014173
0.00125936
0.000922223
0.000438357
-0.000170769
-0.000894094
-0.00172738
-0.00266645
-0.0037
-0.00480983
-0.0059508
-0.00700728
-0.00535144
-0.00330321
-0.00169842
-0.000493007
0.000354614
0.000893604
0.00117164
0.00123168
0.00111182
0.000843887
0.000451331
-5.20843e-05
-0.000661956
-0.00138007
-0.002208
-0.00314011
-0.00416298
-0.00523283
-0.00625215
-0.00410966
-0.00246493
-0.00119031
-0.000240446
0.000422457
0.000840605
0.00105312
0.00109372
0.000991483
0.000769928
0.000445367
2.55283e-05
-0.000490324
-0.00110862
-0.00183553
-0.00267034
-0.00360416
-0.00459561
-0.00556471
-0.00292508
-0.00165218
-0.000682368
2.97606e-05
0.000518
0.000817954
0.000961016
0.000972963
0.000875247
0.000684585
0.000411528
5.9117e-05
-0.000377168
-0.000907041
-0.00154006
-0.00227952
-0.00312089
-0.00402629
-0.00493261
-0.00184001
-0.000911802
-0.00022288
0.000270497
0.00059733
0.000786472
0.000861997
0.000842534
0.000742926
0.000574139
0.000342037
4.61278e-05
-0.000320614
-0.000769797
-0.00131305
-0.00195679
-0.00270077
-0.00351201
-0.0043434
-0.000896094
-0.000288828
0.000142996
0.00043879
0.000621274
0.000711894
0.000727383
0.000679671
0.00057767
0.000427378
0.000230865
-1.48473e-05
-0.000318031
-0.00069078
-0.00114544
-0.00169069
-0.00233063
-0.00303903
-0.00378348
-0.000133724
0.00017534
0.000376242
0.000499562
0.0005594
0.000568795
0.000536909
0.000469236
0.000369302
0.000238826
7.68964e-05
-0.000120966
-0.000363087
-0.000660676
-0.00102545
-0.0014674
-0.00199521
-0.00259177
-0.00323701
0.000407515
0.000443692
0.000445117
0.000426775
0.000390959
0.000341256
0.000279147
0.000204053
0.000114723
9.32659e-06
-0.000115226
-0.000264006
-0.000444333
-0.000665309
-0.000936715
-0.0012688
-0.0016751
-0.00215088
-0.00268383
0.000680759
0.000458941
0.000286716
0.000156558
5.36108e-05
-2.99563e-05
-0.000100876
-0.000165686
-0.000229955
-0.000298441
-0.000375705
-0.00046664
-0.000576698
-0.000711839
-0.000878604
-0.00108611
-0.00135308
-0.0016934
-0.0020983
0.000627654
0.000111864
-0.000243398
-0.000476286
-0.000627735
-0.000722038
-0.000776935
-0.000806331
-0.000820694
-0.000827807
-0.000833507
-0.000842158
-0.000856862
-0.000879713
-0.000912559
-0.000960423
-0.0010438
-0.00120207
-0.0014331
0.000275542
-0.000402079
-0.00082377
-0.00108272
-0.0012322
-0.00130559
-0.00132648
-0.00131204
-0.00127463
-0.00122294
-0.00116287
-0.00109798
-0.00102967
-0.000957491
-0.000879837
-0.000796424
-0.000718344
-0.00068289
-0.000711023
)
;

boundaryField
{
    leftWall
    {
        type            fixedFluxPressure;
        gradient        uniform 0;
        value           nonuniform List<scalar> 
50
(
2258.78
2256.62
2254.32
2251.3
2247.54
2243.1
2238.03
2232.37
2222.79
2207.9
2191.88
2175.61
2159.94
2145.67
2133.42
2123.59
2116.75
2112.74
2109.23
2104.87
1905.66
446.978
-0.909597
-0.57199
-0.512264
-0.448305
-0.406115
-0.366055
-0.32462
-0.283541
-0.244685
-0.209449
-0.178486
-0.15188
-0.129469
-0.110911
-0.0957151
-0.0833155
-0.073186
-0.0648977
-0.0581105
-0.0525716
-0.0481252
-0.0445623
-0.0413972
-0.0383237
-0.036105
-0.0352118
-0.0309605
-0.0140981
)
;
    }
    rightWall
    {
        type            fixedFluxPressure;
        gradient        uniform 0;
        value           nonuniform List<scalar> 
50
(
-0.305801
-0.304564
-0.302647
-0.299879
-0.296319
-0.292041
-0.287115
-0.281603
-0.272161
-0.257338
-0.240984
-0.223569
-0.205555
-0.187379
-0.169434
-0.152055
-0.135516
-0.120023
-0.105717
-0.0926788
-0.0809348
-0.0704686
-0.061229
-0.0531387
-0.0461031
-0.0400171
-0.0347717
-0.0302553
-0.0263515
-0.0230228
-0.0201834
-0.0177618
-0.0156871
-0.0139003
-0.0123532
-0.011005
-0.00982172
-0.00877535
-0.0078433
-0.00700728
-0.00625215
-0.00556471
-0.00493261
-0.0043434
-0.00378348
-0.00323701
-0.00268383
-0.0020983
-0.0014331
-0.000711023
)
;
    }
    lowerWall
    {
        type            fixedFluxPressure;
        gradient        uniform 0;
        value           nonuniform List<scalar> 
62
(
2258.78
2269.08
2273.96
2272.52
2262.79
2243.94
2215.53
2176.95
2127.24
2065.25
1989.6
1898.81
1791.42
1666.57
1524.97
1370.7
1214.89
1081.76
1025.44
1109.94
1417.74
1976.87
2718.6
2718.6
2753.07
2509.77
1805.94
978.912
423.666
102.084
26.8251
-5.55738
-5.4804
-5.31344
-4.83839
-1.62696
-1.64296
-1.68007
-1.74155
-1.83308
-1.96445
-2.15511
-2.42596
-1.62696
-1.54339
-1.40155
-1.23416
-1.07331
-0.930208
-0.808137
-0.706108
-0.621702
-0.552431
-0.495549
-0.449185
-0.411485
-0.380975
-0.356518
-0.337204
-0.322487
-0.312222
-0.305801
)
;
    }
    atmosphere
    {
        type            totalPressure;
        rho             rho;
        psi             none;
        gamma           1;
        p0              uniform 0;
        value           nonuniform List<scalar> 
46
(
-0.0216759
-0.0406952
-0.0353397
-0.0321543
-0.0295163
-0.0270507
-0.0245962
-0.0220893
-0.019524
-0.0169309
-0.0143604
-0.011872
-0.00952441
-0.00737068
-0.00545398
-0.00380613
-0.00244745
-0.00138854
-0.000633182
-0.000180039
-8.46774e-06
0
0
0
0
0
0
0
0
0
0
0
0
0
0
0
0
0
0
0
0
0
0
0
0
0
)
;
    }
    defaultFaces
    {
        type            empty;
    }
}


// ************************************************************************* //
