/*--------------------------------*- C++ -*----------------------------------*\
| =========                 |                                                 |
| \\      /  F ield         | OpenFOAM: The Open Source CFD Toolbox           |
|  \\    /   O peration     | Version:  v2012                                 |
|   \\  /    A nd           | Website:  www.openfoam.com                      |
|    \\/     M anipulation  |                                                 |
\*---------------------------------------------------------------------------*/
FoamFile
{
    version     2.0;
    format      ascii;
    class       surfaceScalarField;
    location    "0.4";
    object      alphaPhi0.water;
}
// * * * * * * * * * * * * * * * * * * * * * * * * * * * * * * * * * * * * * //

dimensions      [0 3 -1 0 0 0 0];
oriented        oriented;


internalField   nonuniform List<scalar> 
4432
(
-5.29214e-06
5.29214e-06
-5.64816e-06
3.56018e-07
-2.40076e-06
-3.24741e-06
2.03555e-06
-4.43631e-06
6.77888e-06
-4.74333e-06
1.1375e-05
-4.5961e-06
1.56677e-05
-4.29275e-06
1.96317e-05
-3.96396e-06
2.32827e-05
-3.65105e-06
2.66388e-05
-3.35611e-06
2.97007e-05
-3.06185e-06
3.24384e-05
-2.73774e-06
3.47795e-05
-2.34107e-06
3.6583e-05
-1.80345e-06
3.7597e-05
-1.01405e-06
3.72843e-05
3.12756e-07
3.48495e-05
2.43475e-06
2.96418e-05
5.20767e-06
2.11687e-05
8.47314e-06
9.72737e-06
1.14413e-05
-3.17324e-06
1.30312e-05
-1.07288e-05
7.43364e-06
-1.08492e-05
-3.1775e-06
8.46964e-06
-1.7926e-06
-1.02889e-06
1.43139e-06
-6.4714e-06
5.60242e-06
-8.60733e-06
1.00244e-05
-9.16534e-06
1.43667e-05
-8.93839e-06
1.84848e-05
-8.41084e-06
2.23337e-05
-7.81285e-06
2.59092e-05
-7.22655e-06
2.92127e-05
-6.65966e-06
3.22322e-05
-6.08135e-06
3.49297e-05
-5.43523e-06
3.72306e-05
-4.64198e-06
3.90134e-05
-3.58625e-06
4.01058e-05
-2.10642e-06
4.03283e-05
9.02483e-08
3.93968e-05
3.36621e-06
3.65823e-05
8.02218e-06
3.09492e-05
1.41063e-05
2.17284e-05
2.06621e-05
9.57209e-06
2.51875e-05
1.21076e-07
1.71814e-05
-1.13198e-05
-1.02633e-06
9.49598e-06
9.07693e-07
-2.96292e-06
4.14843e-06
-9.71214e-06
8.10688e-06
-1.25658e-05
1.22561e-05
-1.33145e-05
1.634e-05
-1.30223e-05
2.02406e-05
-1.23115e-05
2.39147e-05
-1.14869e-05
2.73496e-05
-1.06615e-05
3.05367e-05
-9.84671e-06
3.34552e-05
-8.9999e-06
3.60629e-05
-8.04293e-06
3.82869e-05
-6.86596e-06
4.00166e-05
-5.31599e-06
4.10943e-05
-3.18409e-06
4.13552e-05
-1.70666e-07
4.05932e-05
4.12818e-06
3.84883e-05
1.01272e-05
3.45523e-05
1.80423e-05
2.81349e-05
2.70795e-05
1.89612e-05
3.43612e-05
8.23008e-06
2.8243e-05
-3.00765e-06
7.75331e-07
8.72065e-06
3.03774e-06
-5.22533e-06
6.3816e-06
-1.3056e-05
1.02068e-05
-1.6391e-05
1.41357e-05
-1.72434e-05
1.79842e-05
-1.68709e-05
2.16707e-05
-1.5998e-05
2.51631e-05
-1.49792e-05
2.84467e-05
-1.39452e-05
3.15064e-05
-1.29064e-05
3.43157e-05
-1.18091e-05
3.68297e-05
-1.05569e-05
3.89788e-05
-9.01508e-06
4.06637e-05
-7.00088e-06
4.17524e-05
-4.27286e-06
4.20983e-05
-5.16543e-07
4.15503e-05
4.67618e-06
3.9935e-05
1.17425e-05
3.70101e-05
2.09672e-05
3.23198e-05
3.17698e-05
2.51419e-05
4.15391e-05
1.45261e-05
3.88585e-05
1.1461e-05
1.95661e-06
6.76403e-06
4.74754e-06
-8.01626e-06
8.26377e-06
-1.65722e-05
1.203e-05
-2.01572e-05
1.57836e-05
-2.0997e-05
1.94203e-05
-2.05076e-05
2.29029e-05
-1.94805e-05
2.62162e-05
-1.82926e-05
2.93478e-05
-1.70768e-05
3.22784e-05
-1.58371e-05
3.4978e-05
-1.45086e-05
3.74008e-05
-1.29798e-05
3.94822e-05
-1.10964e-05
4.1135e-05
-8.65368e-06
4.22506e-05
-5.38853e-06
4.27118e-05
-9.77711e-07
4.24133e-05
4.97466e-06
4.12592e-05
1.28966e-05
3.91209e-05
2.31055e-05
3.56376e-05
3.52532e-05
2.98878e-05
4.72888e-05
1.94582e-05
4.92879e-05
3.08616e-05
2.68639e-06
4.07764e-06
6.1e-06
-1.14299e-05
9.86513e-06
-2.03374e-05
1.36222e-05
-2.39142e-05
1.72297e-05
-2.46046e-05
2.06719e-05
-2.39498e-05
2.3961e-05
-2.27696e-05
2.71014e-05
-2.1433e-05
3.00842e-05
-2.00596e-05
3.28881e-05
-1.8641e-05
3.54803e-05
-1.71008e-05
3.78161e-05
-1.53156e-05
3.98367e-05
-1.31171e-05
4.14681e-05
-1.02851e-05
4.26236e-05
-6.54401e-06
4.32168e-05
-1.57095e-06
4.31844e-05
5.00711e-06
4.24881e-05
1.35928e-05
4.10734e-05
2.45202e-05
3.86416e-05
3.7685e-05
3.41861e-05
5.17443e-05
2.42236e-05
5.92504e-05
5.50261e-05
3.19366e-06
8.8398e-07
7.21929e-06
-1.54555e-05
1.1262e-05
-2.43801e-05
1.50248e-05
-2.7677e-05
1.84926e-05
-2.80724e-05
2.17469e-05
-2.72041e-05
2.48501e-05
-2.58729e-05
2.78246e-05
-2.44075e-05
3.06639e-05
-2.28989e-05
3.33447e-05
-2.13218e-05
3.58328e-05
-1.95889e-05
3.80854e-05
-1.75682e-05
4.00508e-05
-1.50824e-05
4.16682e-05
-1.19025e-05
4.28721e-05
-7.74785e-06
4.36058e-05
-2.30467e-06
4.38461e-05
4.76677e-06
4.36105e-05
1.38284e-05
4.29226e-05
2.52081e-05
4.15874e-05
3.90203e-05
3.87154e-05
5.46162e-05
2.98042e-05
6.81616e-05
8.47719e-05
3.63642e-06
-2.75244e-06
8.24229e-06
-2.00614e-05
1.25448e-05
-2.86826e-05
1.62831e-05
-3.14152e-05
1.95902e-05
-3.13795e-05
2.26518e-05
-3.02657e-05
2.55741e-05
-2.87952e-05
2.83902e-05
-2.72235e-05
3.10927e-05
-2.56014e-05
3.36556e-05
-2.38846e-05
3.60432e-05
-2.19766e-05
3.82157e-05
-1.97407e-05
4.01292e-05
-1.69959e-05
4.17367e-05
-1.351e-05
4.29922e-05
-9.00343e-06
4.3867e-05
-3.17946e-06
4.43768e-05
4.25698e-06
4.45972e-05
1.3608e-05
4.46529e-05
2.51524e-05
4.45493e-05
3.91239e-05
4.37573e-05
5.54082e-05
3.68942e-05
7.50247e-05
0.000121609
-1.65834e-23
4.36345e-23
-1.95741e-22
1.27324e-22
-5.23839e-22
1.37066e-22
-6.79913e-21
4.78712e-22
-5.59065e-20
-2.1432e-21
-2.73282e-19
-1.03856e-19
-4.39625e-19
-8.77483e-19
-7.28175e-19
-6.81878e-19
4.1067e-19
-8.82527e-18
4.20155e-19
-3.83183e-18
1.48254e-19
-7.75543e-19
1.98195e-20
-8.40036e-20
1.82299e-21
-2.98541e-21
2.91202e-23
-7.11754e-23
1.70369e-24
2.49123e-24
5.87356e-26
1.81611e-25
9.15903e-28
8.86455e-27
2.71553e-28
1.9932e-28
8.47138e-30
-2.46099e-22
1.09635e-21
-1.46887e-21
1.6969e-21
-5.73102e-20
2.85287e-20
-9.50769e-19
1.71973e-19
-6.35469e-18
-1.32113e-18
-8.43191e-18
-1.02838e-17
-1.24009e-17
-7.42765e-18
-2.47241e-17
1.5215e-17
1.65471e-17
-5.05192e-17
2.20251e-17
-2.69321e-18
1.15769e-17
-2.32166e-17
1.64972e-18
-7.33608e-18
1.36563e-19
-4.4939e-19
2.9779e-21
-1.01845e-20
9.84297e-23
4.92926e-22
5.409e-24
4.03206e-23
8.50486e-26
2.33142e-24
9.59448e-28
6.69836e-26
7.04838e-28
-7.7336e-21
2.70053e-20
-9.06892e-20
1.19838e-19
-2.87711e-18
2.03215e-18
-2.67836e-17
7.65663e-18
-7.81911e-17
1.68732e-17
-6.91709e-17
2.00439e-17
-5.31418e-16
4.43514e-16
-7.48693e-16
1.33377e-16
7.26478e-16
-2.46327e-15
6.89076e-16
-6.50818e-16
2.3254e-16
3.29635e-16
5.88598e-17
-2.02331e-17
5.46478e-18
-1.13789e-17
1.70533e-19
-6.09776e-19
2.95233e-21
2.08632e-20
1.26566e-22
1.65958e-21
3.26968e-24
9.66587e-23
4.43935e-26
2.98754e-24
3.69688e-26
-6.37425e-20
3.08864e-19
-2.05579e-18
2.58189e-18
-1.01305e-16
5.95061e-17
-7.24707e-16
5.97486e-16
-1.02911e-15
1.54388e-15
-2.44095e-15
1.49665e-15
-1.60903e-14
1.4146e-14
-1.18665e-14
-6.34824e-15
2.52256e-14
-6.55182e-14
1.92752e-14
-1.02598e-14
7.5343e-15
6.15614e-15
1.2346e-15
3.83768e-15
1.46998e-16
2.47844e-16
6.16963e-18
-2.27042e-17
8.23267e-20
6.94923e-19
4.20339e-21
5.76888e-20
1.24308e-22
3.51605e-21
1.83008e-24
1.15891e-22
1.58429e-24
-4.5406e-19
2.59552e-18
-1.76886e-17
5.34533e-17
-3.14379e-15
1.00873e-15
-9.63739e-14
3.18194e-14
-5.19577e-14
-5.56753e-14
-7.01221e-14
1.96872e-15
-2.51279e-13
2.01235e-13
2.59032e-14
-3.22407e-13
7.60163e-13
-1.43002e-12
4.51644e-13
-7.64589e-14
1.75201e-13
1.40939e-13
3.38587e-14
9.73194e-14
3.46129e-15
1.55138e-14
1.76851e-16
-7.2647e-17
2.64221e-18
2.48296e-17
1.5331e-19
2.04311e-18
4.94708e-21
1.32095e-19
7.67387e-23
4.6665e-21
6.95526e-23
-1.56713e-18
4.04131e-17
-7.41973e-17
1.70412e-16
-2.28726e-14
1.17327e-14
-4.28601e-12
2.34818e-12
-7.55432e-13
-5.2234e-12
-1.98938e-13
-1.55987e-12
7.22388e-13
-1.10878e-12
8.12329e-12
-8.94624e-12
1.81421e-11
-2.31609e-11
8.04466e-12
3.35009e-12
3.04138e-12
2.60794e-12
6.08494e-13
1.76857e-12
6.74786e-14
3.42843e-13
4.77137e-15
1.12427e-14
9.26949e-17
1.44598e-15
5.04467e-18
7.69986e-17
1.77045e-19
4.5171e-18
2.97113e-21
1.72987e-19
2.81451e-21
3.04356e-18
7.33947e-17
2.55934e-18
2.07724e-16
1.55271e-17
1.17459e-14
1.17773e-11
-9.78623e-12
3.10156e-10
-4.0258e-10
9.40347e-11
1.7124e-10
1.32402e-10
-5.19923e-11
3.08471e-10
-2.28516e-10
3.59196e-10
-2.53391e-10
1.1874e-10
1.45405e-10
4.31306e-11
4.21891e-11
8.63068e-12
2.63517e-11
8.83827e-13
5.78388e-12
1.01732e-13
2.33724e-13
4.7045e-15
4.62995e-14
1.76178e-16
4.41881e-15
5.95987e-18
1.67591e-16
1.07766e-19
5.97699e-18
1.04662e-19
8.55034e-08
-9.79194e-08
2.95699e-09
8.25464e-08
1.41129e-10
2.81603e-09
4.95928e-08
-4.91644e-08
4.97468e-08
-4.46971e-09
8.59425e-09
3.99107e-08
8.13578e-09
-1.00751e-10
1.09474e-08
-3.87573e-09
6.83208e-09
1.4564e-09
1.94447e-09
3.85458e-09
6.79585e-10
8.72943e-10
1.37835e-10
4.46909e-10
1.15696e-11
1.12974e-10
1.34355e-12
6.96418e-12
1.43152e-13
7.71643e-13
9.03339e-15
1.35712e-13
2.27484e-16
8.96555e-15
3.77899e-18
2.32822e-16
3.82652e-18
9.43808e-06
-1.21905e-05
2.1285e-05
-3.19081e-05
3.09157e-05
-3.83129e-05
3.83947e-05
-3.88939e-05
4.47209e-05
-3.77054e-05
5.05651e-05
-3.61095e-05
5.62129e-05
-3.44427e-05
6.17227e-05
-3.27331e-05
6.70576e-05
-3.09362e-05
7.21476e-05
-2.89744e-05
7.69141e-05
-2.6743e-05
8.12831e-05
-2.41096e-05
8.51907e-05
-2.09035e-05
8.85834e-05
-1.69027e-05
9.14246e-05
-1.18447e-05
9.37316e-05
-5.48646e-06
9.56598e-05
2.32874e-06
9.75445e-05
1.17233e-05
0.000100039
2.26575e-05
0.000104051
3.51125e-05
0.000110831
4.8628e-05
0.000123911
6.19445e-05
8.06084e-05
0.000164839
1.35312e-05
-2.57207e-05
2.81191e-05
-4.64893e-05
3.66183e-05
-4.68036e-05
4.22527e-05
-4.45204e-05
4.71452e-05
-4.25909e-05
5.20369e-05
-4.09951e-05
5.70261e-05
-3.94267e-05
6.20281e-05
-3.77307e-05
6.69348e-05
-3.58393e-05
7.1644e-05
-3.36809e-05
7.60705e-05
-3.11674e-05
8.01558e-05
-2.81935e-05
8.38753e-05
-2.46221e-05
8.72348e-05
-2.02618e-05
9.02613e-05
-1.4871e-05
9.3026e-05
-8.25115e-06
9.58124e-05
-4.57088e-07
9.89796e-05
8.55609e-06
0.000103374
1.82634e-05
0.000110051
2.84356e-05
0.000120725
3.79538e-05
0.000137456
4.52134e-05
5.22012e-05
0.000165863
2.03084e-05
-2.84251e-05
2.81971e-05
-2.72704e-05
3.03099e-05
-1.71177e-05
3.30997e-05
-1.62558e-05
3.68134e-05
-1.65982e-05
4.12083e-05
-1.72317e-05
4.59126e-05
-1.77848e-05
5.07642e-05
-1.81604e-05
5.56915e-05
-1.83536e-05
6.06284e-05
-1.83382e-05
6.55588e-05
-1.80875e-05
7.05325e-05
-1.75902e-05
7.56058e-05
-1.68144e-05
8.07448e-05
-1.55893e-05
8.57162e-05
-1.34245e-05
9.02366e-05
-9.63369e-06
9.38826e-05
-3.57213e-06
9.80088e-05
4.42996e-06
0.000103251
1.30215e-05
0.000110159
2.15269e-05
0.000119616
2.84973e-05
0.000132749
3.20804e-05
3.29118e-05
0.000152038
6.89288e-06
1.83958e-14
2.87257e-06
1.20079e-14
2.11475e-06
4.6103e-13
2.44714e-06
1.38191e-12
3.11396e-06
2.31648e-12
4.01239e-06
7.86547e-12
5.08642e-06
2.47773e-11
6.33249e-06
5.14238e-11
7.78842e-06
5.76263e-11
9.51028e-06
3.28533e-11
1.16358e-05
1.3032e-11
1.44647e-05
4.2728e-12
1.85246e-05
1.31403e-12
2.45641e-05
4.13263e-13
3.34532e-05
1.32121e-13
4.61827e-05
3.53844e-14
6.31826e-05
2.23784e-15
8.12185e-05
1.13546e-08
9.80092e-05
3.92633e-06
0.000108347
1.11893e-05
0.000117851
1.89936e-05
0.000129848
2.00829e-05
1.83317e-05
0.000144428
-6.62077e-15
3.4216e-14
-5.34768e-15
2.34581e-14
-3.50965e-13
1.59741e-12
-1.16171e-12
4.14578e-12
-2.11386e-12
6.43285e-12
-7.88883e-12
7.73162e-12
-2.76017e-11
7.9539e-12
-6.39232e-11
7.30044e-12
-8.01905e-11
6.09565e-12
-5.14278e-11
4.69862e-12
-2.3139e-11
3.37316e-12
-8.72097e-12
2.25871e-12
-3.14798e-12
1.40429e-12
-1.20208e-12
8.02647e-13
-4.96975e-13
4.14394e-13
-1.95111e-13
1.89171e-13
-2.41843e-14
7.09751e-14
4.11533e-06
1.82962e-14
1.44489e-05
1.14953e-15
3.47507e-05
4.69787e-08
7.57363e-05
5.33912e-09
0.000123906
3.01325e-06
5.01965e-06
0.000142299
4.26475e-15
2.47788e-14
-5.38787e-16
2.5588e-14
-5.7623e-13
2.45924e-12
-2.44621e-12
5.6497e-12
-5.03955e-12
8.21152e-12
-7.52393e-12
9.4806e-12
-9.25194e-12
9.47041e-12
-9.9295e-12
8.55242e-12
-9.59858e-12
7.1362e-12
-8.55385e-12
5.5731e-12
-7.1353e-12
4.10216e-12
-5.61107e-12
2.84809e-12
-4.16353e-12
1.85498e-12
-2.90289e-12
1.12012e-12
-1.8814e-12
6.11128e-13
-1.10887e-12
2.83925e-13
-5.80508e-13
9.78729e-14
-2.7025e-13
1.79681e-14
-1.22208e-13
1.49569e-14
4.69786e-08
1.33187e-14
7.17363e-07
3.03474e-15
7.57904e-06
-1.04624e-12
-3.00513e-11
1.89995e-05
3.68128e-15
1.16176e-14
-6.70409e-16
1.61608e-14
-6.77806e-13
1.77234e-12
-2.80496e-12
4.24413e-12
-5.59342e-12
6.09992e-12
-8.17624e-12
6.95995e-12
-9.95646e-12
6.89833e-12
-1.07119e-11
6.20609e-12
-1.05237e-11
5.18891e-12
-9.6511e-12
4.08878e-12
-8.38606e-12
3.05881e-12
-6.96538e-12
2.17305e-12
-5.55427e-12
1.45358e-12
-4.26558e-12
9.07314e-13
-3.16399e-12
5.20149e-13
-2.26975e-12
2.68648e-13
-1.56473e-12
1.1978e-13
-1.01787e-12
4.74942e-14
-5.92483e-13
2.9217e-14
-2.8e-13
1.78892e-14
-6.98967e-14
3.47391e-15
9.52812e-14
-1.21142e-12
-3.24544e-11
2.62267e-12
-7.28982e-17
4.21137e-15
-1.62906e-15
6.06364e-15
-4.57551e-13
7.55182e-13
-1.79619e-12
1.98367e-12
-3.54463e-12
2.91059e-12
-5.1567e-12
3.32266e-12
-6.27564e-12
3.27767e-12
-6.78103e-12
2.93224e-12
-6.72945e-12
2.43709e-12
-6.27155e-12
1.91032e-12
-5.57077e-12
1.42343e-12
-4.75461e-12
1.00557e-12
-3.90252e-12
6.47603e-13
-3.09278e-12
3.73515e-13
-2.37733e-12
1.72713e-13
-1.79855e-12
6.70685e-14
-1.34526e-12
2.77826e-14
-9.59697e-13
1.43903e-16
-6.19038e-13
-3.44835e-15
-3.27131e-13
-2.31587e-15
-8.53504e-14
-8.28882e-16
5.87357e-10
-2.39451e-11
-9.38636e-11
1.03597e-09
-1.82937e-16
1.00926e-15
-7.70894e-16
1.38146e-15
-1.79595e-13
2.16823e-13
-7.15913e-13
6.1401e-13
-1.42283e-12
9.16599e-13
-2.07071e-12
1.04237e-12
-2.51546e-12
1.01626e-12
-2.71344e-12
8.94928e-13
-2.6867e-12
7.23556e-13
-2.49652e-12
5.41712e-13
-2.20836e-12
3.78042e-13
-1.86636e-12
2.44622e-13
-1.45885e-12
9.93573e-14
-1.04404e-12
-5.15137e-15
-6.17705e-13
-1.54747e-13
-3.18956e-13
-1.8277e-13
-1.8149e-13
-1.07323e-13
-1.25215e-15
-1.70775e-13
2.3575e-14
-7.4203e-14
3.79318e-14
-3.48074e-14
1.10728e-13
-7.36248e-14
1.61566e-09
-3.71793e-13
-3.4799e-11
1.77213e-09
-5.94189e-17
1.2984e-16
-1.71344e-16
1.6595e-16
-4.51088e-14
4.0081e-14
-1.86235e-13
1.20577e-13
-3.72467e-13
1.80923e-13
-5.39201e-13
2.02831e-13
-6.4821e-13
1.93192e-13
-6.89616e-13
1.64205e-13
-6.65152e-13
1.18084e-13
-5.90226e-13
6.09475e-14
-4.87553e-13
1.14809e-14
-3.74702e-13
-1.29067e-14
-1.82164e-13
-4.77874e-14
1.38419e-13
-2.15476e-13
5.6571e-13
-2.60619e-13
6.2967e-13
-2.47887e-13
5.22524e-13
-8.92823e-14
1.21726e-12
-4.89808e-13
1.52168e-12
-7.37888e-13
9.05739e-13
-7.85627e-13
5.54535e-13
-3.67341e-13
1.42229e-13
-8.1671e-14
-1.74204e-13
1.59841e-10
-8.07285e-18
5.35547e-18
-1.83498e-17
1.03489e-17
-7.04791e-15
3.69504e-15
-3.02988e-14
1.21068e-14
-6.05487e-14
1.85475e-14
-8.63685e-14
2.05965e-14
-1.01555e-13
1.89446e-14
-1.04418e-13
1.43821e-14
-8.96283e-14
1.17627e-15
-5.47723e-14
-2.74611e-14
-1.21696e-14
-5.79026e-14
3.18859e-14
-7.07875e-14
1.4957e-13
-6.64287e-14
4.49987e-13
-1.06628e-13
5.60383e-13
-1.3925e-13
6.61309e-13
-1.22565e-13
5.73533e-13
-1.02173e-13
2.60463e-12
-9.55005e-14
3.13491e-12
-4.28237e-14
3.50154e-12
-2.62125e-15
6.26457e-13
-4.55002e-15
2.12721e-13
-3.65582e-15
-5.66991e-15
3.94829e-14
-3.05395e-19
5.07118e-19
-9.73126e-19
3.99065e-18
-5.39007e-16
3.46121e-17
-2.50064e-15
3.34428e-16
-5.09081e-15
8.23166e-16
-7.19734e-15
1.04356e-15
-8.18412e-15
8.36245e-16
-7.52516e-15
-7.6531e-18
-7.34916e-16
-4.52145e-15
2.92369e-14
-2.57033e-14
5.03166e-14
-5.82955e-14
7.21279e-14
-4.10998e-14
8.09908e-14
-2.37925e-14
7.88954e-14
-5.80223e-15
1.88341e-13
-2.77034e-15
1.9861e-13
-1.48245e-15
1.36006e-13
-1.6697e-15
1.69638e-14
-2.16778e-15
8.21547e-15
-2.82333e-15
8.28557e-15
-3.81614e-15
9.01926e-15
-4.0044e-15
1.08223e-14
-3.74138e-15
-3.6944e-15
1.13784e-14
-2.48155e-20
1.98745e-19
-3.12861e-19
1.75973e-18
-4.16693e-18
1.50525e-17
-5.67962e-17
1.10348e-16
-1.85699e-16
2.62472e-16
-3.00035e-16
2.93684e-16
-2.97651e-16
1.64985e-16
1.15018e-16
-4.20322e-16
4.37183e-15
-1.99316e-15
2.2881e-14
-6.23525e-15
3.28763e-14
-1.65551e-14
3.1915e-14
-1.5105e-14
1.05255e-14
-8.36851e-15
2.34644e-15
-1.95845e-15
1.16673e-15
-1.03855e-15
1.25361e-15
-1.03029e-15
1.42124e-15
-1.29348e-15
3.164e-15
-1.84187e-15
4.57391e-15
-2.17342e-15
6.79809e-15
-2.51117e-15
9.04432e-15
-2.34162e-15
9.80744e-15
-1.67901e-15
-1.51661e-15
1.04821e-14
-8.1031e-21
6.7829e-20
-1.14826e-19
6.45092e-19
-1.50466e-18
5.26288e-18
-1.55367e-17
3.03611e-17
-4.90818e-17
6.73573e-17
-7.00404e-17
6.31198e-17
-4.87576e-17
1.75836e-17
2.74251e-16
-1.03054e-16
8.06276e-16
-5.2835e-16
2.71107e-15
-1.67257e-15
5.3724e-15
-1.84671e-15
5.31259e-15
-1.70991e-15
2.46816e-15
-1.26932e-15
9.18992e-16
-5.6004e-16
9.44598e-16
-4.93882e-16
1.28887e-15
-4.81213e-16
1.96642e-15
-4.27427e-16
3.03876e-15
-3.3576e-16
3.43965e-15
-2.49374e-16
3.06928e-15
-1.62745e-16
2.46579e-15
-1.6058e-16
2.11622e-15
-2.19811e-16
-4.77453e-16
2.28165e-15
-2.28662e-21
1.90808e-20
-3.54561e-20
1.85136e-19
-4.4356e-19
1.39432e-18
-3.59851e-18
6.55993e-18
-1.05912e-17
1.29286e-17
-1.26525e-17
9.38896e-18
-4.36769e-18
1.14512e-18
3.6043e-17
-1.91257e-17
1.85856e-16
-1.17213e-16
4.45432e-16
-3.61306e-16
5.09842e-16
-3.75908e-16
5.10061e-16
-2.88378e-16
3.73125e-16
-1.38335e-16
2.28268e-16
-3.33606e-17
2.49003e-16
-2.78187e-17
2.66161e-16
-2.74986e-17
2.35705e-16
-2.50799e-17
1.86698e-16
-1.76531e-17
1.46424e-16
-1.52237e-17
1.30015e-16
-2.05576e-17
1.85361e-16
-5.90176e-17
4.28133e-16
-1.76174e-16
-5.78352e-16
1.20135e-15
-5.3845e-22
4.05136e-21
-8.7654e-21
3.7776e-20
-1.01318e-19
2.52557e-19
-6.68178e-19
9.7915e-19
-1.7419e-18
1.61747e-18
-1.60935e-18
7.97816e-19
-2.42905e-19
6.36826e-20
5.5161e-18
-3.50597e-18
3.37023e-17
-1.76359e-17
7.98087e-17
-5.18867e-17
9.19344e-17
-5.04872e-17
6.36976e-17
-3.13423e-17
2.27082e-17
-9.27264e-18
9.49923e-18
-1.69353e-18
1.04986e-17
-1.23343e-18
1.16888e-17
-1.26521e-18
1.11629e-17
-1.20095e-18
8.69316e-18
-1.243e-18
9.37379e-18
-2.22629e-18
2.34721e-17
-1.01146e-17
1.05933e-16
-5.37648e-17
3.78504e-16
-1.92204e-16
-7.71389e-16
1.41746e-15
-9.83007e-23
5.57711e-22
-1.58517e-21
4.57888e-21
-1.62406e-20
2.53319e-20
-8.77623e-20
7.68954e-20
-1.90794e-19
9.80192e-20
-1.19257e-19
2.59057e-20
-1.17459e-20
-2.20733e-20
8.1188e-19
-4.14781e-19
4.09109e-18
-1.72789e-18
8.92213e-18
-3.81162e-18
9.86751e-18
-3.56048e-18
4.80948e-18
-2.18901e-18
9.42921e-19
-7.97951e-19
3.68319e-19
-1.74676e-19
4.0351e-19
-9.11141e-20
4.62726e-19
-8.58165e-20
4.90604e-19
-8.93436e-20
6.23907e-19
-1.58547e-19
2.07058e-18
-9.67307e-19
1.45967e-17
-7.93819e-18
8.90018e-17
-4.92391e-17
3.60596e-16
-2.02932e-16
-1.06693e-15
1.68971e-15
-1.20349e-23
3.93684e-23
-1.7532e-22
2.45394e-22
-1.47948e-21
9.19994e-22
-6.21053e-21
1.94238e-21
-1.03453e-20
1.91594e-21
-3.44518e-21
9.26861e-22
9.86966e-21
-2.15967e-21
7.56032e-20
-2.87654e-20
3.16637e-19
-9.3577e-20
5.50263e-19
-1.41872e-19
5.70453e-19
-1.75516e-19
2.96692e-19
-1.43653e-19
8.54387e-20
-7.568e-20
2.59534e-20
-1.89687e-20
2.448e-20
-5.77481e-21
2.72469e-20
-5.2885e-21
3.39195e-20
-8.41536e-21
1.08496e-19
-5.41176e-20
1.06035e-18
-6.06724e-19
1.04632e-17
-6.12478e-18
7.01468e-17
-4.28052e-17
3.39739e-16
-2.208e-16
-1.66758e-15
2.16655e-15
-7.80993e-25
3.57628e-24
-8.78946e-24
3.19779e-23
-4.99062e-23
1.50996e-22
-1.44355e-22
4.28642e-22
-1.84521e-22
7.18868e-22
-1.11688e-22
4.29944e-22
4.36876e-22
-1.81193e-22
4.41946e-21
-1.20309e-21
1.30977e-20
-2.10616e-21
2.04146e-20
-2.37939e-21
2.59108e-20
-7.36037e-21
2.11007e-20
-6.98588e-21
8.974e-21
-4.17869e-21
1.83963e-21
-1.08559e-21
1.31264e-21
-2.25599e-22
1.46294e-21
-3.22011e-22
4.16789e-21
-2.29015e-21
4.51538e-20
-2.91285e-20
6.13594e-19
-3.84754e-19
6.95202e-18
-4.57494e-18
5.44573e-17
-3.83275e-17
3.45974e-16
-2.80093e-16
-2.8309e-15
3.10195e-15
-6.69656e-26
6.72116e-25
-1.09071e-24
6.22717e-24
-7.73504e-24
3.12847e-23
-2.97915e-23
9.684e-23
-6.41704e-23
1.87128e-22
-4.76488e-23
1.22817e-22
5.04074e-23
-5.22661e-23
1.40184e-22
-6.79936e-23
2.24449e-22
-6.04784e-23
2.97874e-22
-8.1475e-23
9.6426e-22
-2.13117e-22
1.00034e-21
-1.86515e-22
4.6215e-22
-1.13035e-22
7.92658e-23
-3.03841e-23
4.87846e-23
-1.27851e-23
1.17605e-22
-7.76722e-23
1.49227e-21
-1.15222e-21
2.29025e-20
-1.64519e-20
3.4035e-19
-2.43604e-19
4.53479e-18
-3.32457e-18
4.44671e-17
-3.53554e-17
4.32324e-16
-3.96828e-16
-4.31666e-15
4.31248e-15
-1.20842e-26
6.42234e-26
-2.04311e-25
6.16148e-25
-1.52866e-24
3.28352e-24
-6.36086e-24
1.09825e-23
-1.56496e-23
2.36385e-23
-1.26516e-23
7.49409e-24
4.70582e-24
-1.48411e-23
5.57974e-24
-1.16766e-23
5.67628e-24
-8.95214e-24
1.02781e-23
-6.00457e-24
2.48935e-23
-3.40949e-24
2.18887e-23
-7.65298e-25
1.09765e-23
-9.54508e-26
2.77709e-24
-1.57567e-25
2.60243e-24
-1.85275e-24
3.9031e-23
-3.49587e-23
7.10367e-22
-5.76157e-22
1.13323e-20
-9.09843e-21
1.87324e-19
-1.46765e-19
2.8432e-18
-2.22524e-18
3.65436e-17
-3.20898e-17
5.20758e-16
-5.21413e-16
-5.49056e-15
5.11733e-15
-1.11801e-27
8.33535e-29
-1.95083e-26
3.1595e-28
-1.53636e-25
2.53851e-28
-6.85121e-25
2.06783e-29
-1.86264e-24
-1.45261e-26
-7.21874e-25
-4.03952e-24
1.01217e-24
-1.60445e-24
7.51875e-25
-5.80859e-25
6.42577e-25
-3.50956e-25
4.40536e-25
-3.73725e-25
2.25003e-25
-2.83893e-25
2.80775e-26
-6.9728e-26
1.29519e-26
-5.67814e-27
3.72044e-26
-3.23675e-26
7.3662e-25
-7.33918e-25
1.67702e-23
-1.45365e-23
3.06411e-22
-2.65481e-22
5.40502e-21
-4.59154e-21
9.58837e-20
-7.84881e-20
1.60566e-18
-1.29098e-18
2.86485e-17
-2.68307e-17
5.59632e-16
-5.99227e-16
-5.90276e-15
5.14571e-15
-1.40687e-30
7.37629e-32
-9.63189e-30
2.07367e-31
-1.13595e-29
1.41786e-31
-1.22519e-30
1.0943e-32
1.07959e-27
5.87005e-34
3.64486e-25
-2.48878e-31
4.03708e-26
-4.94693e-29
2.50593e-26
-5.99188e-28
2.5933e-26
-1.47475e-27
3.19291e-26
-6.69079e-28
2.17046e-26
-1.85596e-28
2.26174e-27
-1.37372e-28
7.18139e-28
-4.44091e-28
9.84434e-27
-1.06018e-26
2.74652e-25
-2.48178e-25
5.95289e-24
-5.39026e-24
1.21023e-22
-1.0802e-22
2.30828e-21
-2.01641e-21
4.2803e-20
-3.56706e-20
7.71963e-19
-6.19404e-19
2.00082e-17
-1.949e-17
5.32664e-16
-6.11443e-16
-5.57035e-15
4.64085e-15
-1.20238e-33
-5.37351e-50
-6.04847e-33
1.66088e-50
-6.03585e-33
6.28229e-48
-6.13356e-34
4.90351e-40
-4.10284e-35
-1.90737e-38
4.16493e-32
-2.19618e-34
4.7069e-30
-9.5895e-32
5.42766e-29
-1.00605e-30
9.83199e-29
-3.39715e-30
2.78806e-29
-6.05952e-30
1.24244e-29
-8.08247e-30
1.35959e-29
-1.01426e-29
9.3724e-29
-1.06181e-28
3.0711e-27
-2.97501e-27
7.8789e-26
-7.49011e-26
1.89813e-24
-1.77466e-24
4.1845e-23
-3.85897e-23
8.5204e-22
-7.71167e-22
1.61364e-20
-1.37439e-20
3.03919e-19
-2.41358e-19
1.18721e-17
-1.1892e-17
4.35461e-16
-4.78026e-16
-4.44939e-15
3.36043e-15
8.39228e-52
-3.5215e-50
-4.59211e-52
8.54054e-51
-2.52287e-49
4.19697e-48
-2.5814e-41
2.98343e-48
2.51594e-39
-2.48661e-41
1.72129e-35
-3.08974e-38
8.42424e-33
-2.20305e-34
8.94909e-32
-1.7165e-32
2.86975e-31
-9.22844e-32
5.05761e-31
-1.84781e-31
7.31718e-31
-2.31165e-31
1.14676e-30
-8.60126e-31
2.33917e-29
-2.58303e-29
7.41798e-28
-7.56059e-28
2.05912e-26
-2.05455e-26
5.34793e-25
-5.23287e-25
1.26894e-23
-1.23686e-23
2.73876e-22
-2.63365e-22
5.16036e-21
-4.63935e-21
9.68432e-20
-7.7462e-20
5.80977e-18
-5.93304e-18
2.53372e-16
-3.13174e-16
-3.28811e-15
2.24703e-15
5.24628e-52
-1.00309e-50
-2.21273e-52
1.636e-51
-1.57295e-49
1.43877e-48
-1.4609e-49
1.7443e-48
1.50627e-42
-1.63424e-44
2.23678e-39
-1.27914e-41
1.85646e-35
-4.68362e-37
1.52526e-33
-1.12308e-34
7.50119e-33
-7.48573e-34
1.3606e-32
-1.62883e-33
1.93986e-32
-5.18369e-33
1.30053e-31
-1.60893e-31
5.10172e-30
-5.68416e-30
1.63446e-28
-1.75718e-28
4.85635e-27
-5.13501e-27
1.34492e-25
-1.41103e-25
3.44137e-24
-3.60795e-24
7.84034e-23
-8.21475e-23
1.44664e-21
-1.44711e-21
2.5407e-20
-2.17259e-20
2.29478e-18
-2.37176e-18
1.33982e-16
-1.76552e-16
-2.1983e-15
1.37336e-15
8.09156e-53
-9.15145e-52
-3.92088e-53
-6.2663e-52
-4.9695e-50
-2.75455e-52
-7.85194e-50
5.25581e-49
1.05984e-45
-4.67346e-45
9.00366e-43
-1.47398e-42
3.60576e-38
-1.27513e-40
9.17159e-36
-8.16788e-39
5.58318e-35
-5.02698e-37
1.31563e-34
-1.5584e-35
5.85794e-34
-7.16152e-34
2.50743e-32
-3.17027e-32
9.68207e-31
-1.08927e-30
3.26252e-29
-3.69087e-29
1.03526e-27
-1.17829e-27
3.06847e-26
-3.48777e-26
8.41054e-25
-9.59855e-25
2.03058e-23
-2.35288e-23
3.72145e-22
-4.30612e-22
5.8103e-21
-5.78624e-21
7.13351e-19
-7.39079e-19
5.88581e-17
-8.37541e-17
-1.34942e-15
7.45223e-16
6.26931e-54
-4.39716e-53
1.37048e-53
-1.00165e-53
8.63865e-54
-8.05654e-54
-2.1457e-50
-5.0742e-52
2.79311e-46
-3.20229e-46
9.84253e-44
-1.97424e-43
9.5821e-42
-2.24558e-41
6.71827e-40
-8.38819e-40
4.58028e-38
-4.47203e-38
1.64691e-36
-2.61709e-36
8.78469e-35
-1.22975e-34
4.25907e-33
-4.78219e-33
1.58642e-31
-1.91916e-31
5.82694e-30
-7.07061e-30
2.00236e-28
-2.46976e-28
6.32851e-27
-7.91353e-27
1.84417e-25
-2.31399e-25
4.73567e-24
-6.03851e-24
8.91038e-23
-1.1585e-22
1.23755e-21
-1.4537e-21
1.68331e-19
-1.71785e-19
2.12204e-17
-3.35787e-17
-7.54599e-16
3.57925e-16
2.71316e-55
-1.67079e-54
1.17315e-55
-9.98101e-55
1.16936e-55
-4.12166e-55
3.6852e-53
-1.03653e-52
1.55522e-47
-3.2586e-47
1.15202e-44
-1.37643e-44
1.52539e-42
-1.20728e-42
6.38417e-41
-9.47496e-41
3.83628e-39
-5.83999e-39
2.54376e-37
-3.00487e-37
1.29779e-35
-1.47006e-35
5.45256e-34
-7.07026e-34
2.37586e-32
-3.08331e-32
9.37542e-31
-1.24705e-30
3.48093e-29
-4.74423e-29
1.17448e-27
-1.62832e-27
3.57231e-26
-4.90572e-26
9.56305e-25
-1.29023e-24
1.84144e-23
-2.44102e-23
2.36947e-22
-2.98916e-22
2.84899e-20
-2.8074e-20
6.1609e-18
-1.10909e-17
-3.7531e-16
1.44788e-16
9.4595e-57
-5.51103e-56
6.18838e-57
-3.67659e-56
5.42148e-57
-3.42029e-56
3.53605e-54
-2.60922e-54
1.41879e-48
-3.59111e-48
6.85577e-46
-9.95093e-46
6.90747e-44
-9.79604e-44
6.29489e-42
-7.57416e-42
4.35901e-40
-5.13544e-40
2.45443e-38
-3.16852e-38
1.31092e-36
-1.75648e-36
6.84917e-35
-9.1377e-35
3.18798e-33
-4.44861e-33
1.36456e-31
-2.00273e-31
5.41379e-30
-7.9776e-30
1.91504e-28
-2.82974e-28
5.84941e-27
-8.35515e-27
1.52792e-25
-2.00922e-25
2.80588e-24
-3.41957e-24
3.47327e-23
-4.59146e-23
3.19623e-21
-3.18938e-21
1.35086e-18
-2.9402e-18
-1.60911e-16
4.59622e-17
2.88259e-58
-1.14993e-57
2.75889e-58
-8.74179e-58
3.82356e-58
-1.13534e-57
7.38959e-56
-1.26904e-55
1.32594e-49
-2.45587e-49
4.26644e-47
-5.63009e-47
4.8794e-45
-6.06162e-45
4.27083e-43
-5.2538e-43
3.2349e-41
-4.05521e-41
2.20339e-39
-2.86172e-39
1.32524e-37
-1.80342e-37
7.34147e-36
-1.02092e-35
3.76047e-34
-5.35876e-34
1.75601e-32
-2.58341e-32
7.09527e-31
-1.00791e-30
2.51887e-29
-3.56766e-29
7.28168e-28
-9.81473e-28
1.66895e-26
-2.01234e-26
2.66254e-25
-3.03875e-25
3.50302e-24
-5.54583e-24
2.24666e-22
-3.09591e-22
1.99959e-19
-6.05188e-19
-5.78212e-17
9.60163e-18
5.58006e-60
-2.38176e-59
5.6427e-60
-1.94075e-59
1.25682e-59
-2.00498e-59
3.08784e-57
-9.60004e-57
7.38737e-51
-8.04612e-51
2.02478e-48
-2.45703e-48
2.53889e-46
-2.96528e-46
2.50578e-44
-2.98073e-44
2.15701e-42
-2.68804e-42
1.66211e-40
-2.10649e-40
1.1234e-38
-1.49865e-38
6.67193e-37
-8.92203e-37
3.60155e-35
-4.7522e-35
1.74927e-33
-2.31338e-33
6.6991e-32
-8.63294e-32
2.28179e-30
-2.94318e-30
5.85233e-29
-7.35285e-29
1.08844e-27
-1.63881e-27
1.45649e-26
-2.49126e-26
2.31341e-25
-3.33568e-25
1.00854e-23
-1.63072e-23
1.31713e-20
-1.0188e-19
-1.71789e-17
2.98002e-19
1.04663e-61
-2.84685e-61
8.37639e-62
1.35046e-63
9.57628e-62
6.59637e-60
1.88817e-58
-4.92155e-58
1.96167e-52
-2.75209e-52
7.2908e-50
-8.43627e-50
1.03215e-47
-1.17846e-47
1.18362e-45
-1.36477e-45
1.18457e-43
-1.31637e-43
1.00382e-41
-1.08454e-41
7.55361e-40
-8.36231e-40
4.63467e-38
-5.39773e-38
2.4771e-36
-2.96439e-36
1.17554e-34
-1.48941e-34
4.14191e-33
-5.76922e-33
1.28137e-31
-1.91694e-31
2.76962e-30
-4.84759e-30
4.97411e-29
-9.042e-29
5.39198e-28
-9.06045e-28
4.38369e-27
-5.54283e-26
-2.61105e-25
-2.97782e-23
-1.44008e-20
-1.84343e-20
-3.86527e-18
-1.91554e-18
1.11222e-63
-1.7974e-63
-9.27373e-66
1.40415e-61
-6.74082e-62
8.04532e-60
6.38764e-60
6.90176e-59
5.32852e-54
-7.22455e-54
2.01789e-51
-2.06926e-51
3.34164e-49
-3.08731e-49
4.42561e-47
-3.92304e-47
4.72345e-45
-4.40172e-45
4.17847e-43
-3.98749e-43
3.36009e-41
-3.25477e-41
2.19696e-39
-2.43503e-39
1.17746e-37
-1.35508e-37
5.52489e-36
-6.1904e-36
1.90413e-34
-2.73517e-34
5.1827e-33
-8.53259e-33
9.39646e-32
-1.71976e-31
9.11051e-31
-1.48952e-30
-1.25994e-31
-1.28236e-28
-1.90476e-27
-4.65151e-26
-1.17981e-23
-1.61332e-23
-9.11598e-21
-3.31098e-21
-6.53123e-19
-8.2519e-19
5.08258e-66
5.90375e-65
-5.22533e-64
8.03302e-62
-5.38343e-62
5.53392e-60
-7.12085e-61
9.52694e-59
1.05633e-55
-7.54976e-56
3.87069e-53
-2.85448e-53
6.96853e-51
-5.14603e-51
1.02035e-48
-7.36175e-49
1.26827e-46
-8.84428e-47
1.22842e-44
-9.73235e-45
1.03379e-42
-9.22962e-43
7.64523e-41
-6.34693e-41
4.00657e-39
-4.02623e-39
1.61712e-37
-2.02256e-37
5.72344e-36
-8.15488e-36
1.17036e-34
-2.02523e-34
8.18404e-34
-2.7615e-33
-5.66116e-33
-1.36194e-31
-4.43495e-29
-5.84641e-29
-2.52652e-26
-1.77021e-26
-1.2232e-23
-3.36819e-24
-2.2313e-21
-4.73608e-22
-7.92534e-20
-2.03834e-19
-1.69079e-67
6.65876e-65
-8.20058e-65
2.14898e-62
-1.81681e-62
1.66961e-60
-6.30042e-61
6.51977e-59
7.88088e-58
-2.65376e-58
4.03403e-55
-1.84973e-55
9.02333e-53
-3.72212e-53
1.50709e-50
-6.33908e-51
2.01397e-48
-1.01843e-48
2.36069e-46
-1.29045e-46
2.27461e-44
-1.20769e-44
1.50914e-42
-1.07362e-42
8.65924e-41
-7.12236e-41
3.55381e-39
-4.14461e-39
9.52575e-38
-1.57197e-37
7.89157e-37
-3.36764e-36
-9.20928e-36
-5.16029e-35
-7.00235e-32
-2.83837e-32
-4.35391e-29
-1.03513e-29
-1.4666e-26
-2.35699e-27
-2.91509e-24
-3.69211e-25
-3.63668e-22
-4.43306e-23
-6.58402e-21
-3.12292e-20
2.81851e-65
4.45168e-68
3.99668e-63
1.79731e-66
2.11875e-62
3.74058e-65
-2.14551e-61
3.78676e-67
2.26732e-60
-7.64653e-62
1.88649e-57
-2.13388e-58
4.90647e-55
-5.88344e-56
9.95617e-53
-1.33955e-53
1.79238e-50
-2.4298e-51
2.40835e-48
-3.82014e-49
2.26451e-46
-5.57172e-47
1.89909e-44
-5.63693e-45
1.08432e-42
-5.20044e-43
4.61714e-41
-3.397e-41
8.16846e-40
-1.48547e-39
-4.708e-39
-2.59502e-38
-2.00491e-35
-3.39926e-36
-2.34909e-32
-1.81845e-33
-9.31513e-30
-5.75217e-31
-2.17102e-27
-1.18674e-28
-3.44447e-25
-1.71971e-26
-3.72551e-23