/*--------------------------------*- C++ -*----------------------------------*\
| =========                 |                                                 |
| \\      /  F ield         | OpenFOAM: The Open Source CFD Toolbox           |
|  \\    /   O peration     | Version:  v2012                                 |
|   \\  /    A nd           | Website:  www.openfoam.com                      |
|    \\/     M anipulation  |                                                 |
\*---------------------------------------------------------------------------*/
FoamFile
{
    version     2.0;
    format      ascii;
    class       volScalarField;
    location    "0.4";
    object      alpha.water;
}
// * * * * * * * * * * * * * * * * * * * * * * * * * * * * * * * * * * * * * //

dimensions      [0 0 0 0 0 0 0];


internalField   nonuniform List<scalar> 
2268
(
1
1
1
1
1
1
1
1
1
1
1
1
1
1
1
1
1
1
1
1
0.987635
0.913854
0.913709
1
1
1
1
1
1
1
1
1
1
1
1
1
1
1
1
1
1
1
1
1
0.923999
0.982895
1
1
1
1
1
1
1
1
1
1
1
1
1
1
1
1
1
1
1
1
1
0.989083
0.996826
1
1
1
1
1
1
1
1
1
1
1
1
1
1
1
1
1
1
1
1
1
0.999994
0.996396
1
1
1
1
1
1
1
1
1
1
1
1
1
1
1
1
1
1
1
1
1
0.999998
0.996382
1
1
1
1
1
1
1
1
1
1
1
1
1
1
1
1
1
1
1
1
1
1
0.99652
1
1
1
1
1
1
1
1
1
1
1
1
1
1
1
1
1
1
1
1
1
1
0.996554
1
1
1
1
1
1
1
1
1
1
1
1
1
1
1
1
1
1
1
1
1
1
0.996614
2.77787e-17
1.05573e-17
1.18013e-17
9.03557e-17
8.49944e-16
4.50093e-15
1.67561e-14
2.29243e-14
4.65471e-14
1.73572e-14
5.21152e-15
8.19898e-16
3.22623e-17
3.87102e-19
6.81235e-20
6.43263e-21
1.9238e-22
1.74251e-24
1.00108e-24
8.85384e-17
3.27435e-17
5.83195e-16
1.11516e-14
9.00621e-14
3.00954e-13
3.33723e-13
6.15468e-14
1.37139e-13
3.08295e-13
2.63647e-13
8.26e-14
3.6468e-15
6.84634e-18
7.10268e-19
2.8795e-19
9.62654e-21
6.20961e-23
1.00108e-24
9.75228e-16
1.44893e-15
3.33918e-14
3.86442e-13
1.67818e-12
3.31211e-12
5.94689e-13
2.63763e-12
4.99088e-12
2.87705e-12
1.17419e-12
1.14205e-12
1.21192e-13
4.55217e-16
2.21409e-17
4.38723e-18
1.06532e-19
8.12491e-22
2.46294e-23
7.55685e-15
2.37284e-14
8.35025e-13
5.96802e-12
3.07853e-12
4.56477e-12
1.23638e-11
6.30067e-11
1.27133e-10
6.19871e-11
2.23242e-11
3.7378e-12
3.37088e-13
1.57038e-14
7.1605e-16
6.87139e-17
1.71628e-18
2.33253e-20
7.41407e-22
4.79836e-14
5.44181e-13
1.44358e-11
1.89749e-10
3.98067e-11
5.82419e-11
2.87199e-10
1.81283e-09
3.17842e-09
1.487e-09
4.6887e-10
8.62627e-11
8.27194e-12
4.34099e-13
1.94007e-14
1.36201e-15
4.9965e-17
7.83224e-19
2.15365e-20
6.05065e-13
5.84606e-13
1.52271e-11
2.52391e-09
4.22449e-09
2.89564e-09
8.30944e-09
4.13066e-08
6.083e-08
2.75325e-08
9.03364e-09
1.81368e-09
2.00197e-10
1.13241e-11
5.407e-13
3.63083e-14
1.32417e-15
1.55453e-17
5.8162e-19
6.18816e-13
6.46098e-13
7.14336e-13
-3.93693e-10
3.32951e-07
1.29967e-07
2.30572e-07
7.91907e-07
9.54033e-07
4.21525e-07
1.41314e-07
3.11351e-08
3.91236e-09
2.58069e-10
1.27504e-11
5.43296e-13
1.95287e-14
1.71096e-16
1.51718e-17
0.00314753
-1.20975e-10
-7.03762e-10
5.56943e-07
1.55228e-05
4.76692e-06
5.89614e-06
1.30627e-05
1.29172e-05
5.31419e-06
1.86846e-06
4.53872e-07
5.58266e-08
4.98402e-09
2.73288e-10
7.86978e-12
8.57979e-14
-6.02983e-15
1.83414e-16
1
0.999999
0.999996
0.999995
0.999996
0.999997
0.999997
0.999998
0.999998
0.999999
0.999999
1
1
1
1
1
1
1
1
1
1
1
0.999111
0.999995
0.999948
0.999911
0.999914
0.999924
0.999935
0.999946
0.999955
0.999963
0.999971
0.999978
0.999985
0.999991
0.999995
0.999998
1
0.999998
1
1
1
1
1
1
0.924854
0.816305
0.732566
0.737469
0.752654
0.772399
0.792076
0.810549
0.828473
0.846414
0.865097
0.885792
0.909734
0.936899
0.964165
0.986331
0.998629
1
1
1
1
1
1
0.186208
0.0987871
0.0474618
0.0505314
0.0575068
0.0674763
0.0791119
0.0918114
0.105821
0.121595
0.140127
0.163592
0.195973
0.243057
0.310506
0.406287
0.54259
0.708524
0.895929
1
1
1
0.999999
-2.09822e-10
-1.7566e-10
-9.90294e-09
-2.85945e-08
-4.6523e-08
-1.58125e-07
-5.09282e-07
-1.09516e-06
-1.28705e-06
-7.80411e-07
-3.35024e-07
-1.21516e-07
-4.25332e-08
-1.58347e-08
-6.38542e-09
-2.42233e-09
-2.8554e-10
0.0211934
0.0811088
0.172664
0.369101
0.750432
0.990534
-2.86981e-10
-3.48831e-10
-3.09864e-08
-7.74705e-08
-1.17813e-07
-1.42663e-07
-1.5019e-07
-1.4279e-07
-1.2514e-07
-1.02836e-07
-8.01849e-08
-5.96535e-08
-4.23763e-08
-2.8665e-08
-1.8331e-08
-1.09191e-08
-5.92101e-09
-2.86998e-09
-1.26056e-09
-4.84424e-21
0.0012914
0.0281516
0.0891275
-2.31574e-10
-3.15831e-10
-3.58471e-08
-8.49655e-08
-1.24792e-07
-1.47768e-07
-1.5319e-07
-1.44797e-07
-1.2772e-07
-1.06832e-07
-8.5687e-08
-6.63281e-08
-4.96927e-08
-3.61106e-08
-2.54942e-08
-1.74796e-08
-1.15475e-08
-7.19482e-09
-4.04821e-09
-1.86517e-09
-4.61271e-10
-3.53958e-21
3.1833e-10
-1.21848e-10
-1.70479e-10
-2.0756e-08
-5.26576e-08
-7.85967e-08
-9.32115e-08
-9.65015e-08
-9.12003e-08
-8.07086e-08
-6.8022e-08
-5.521e-08
-4.33874e-08
-3.29704e-08
-2.42777e-08
-1.73659e-08
-1.22179e-08
-8.47788e-09
-5.61003e-09
-3.4058e-09
-1.72347e-09
-4.32427e-10
6.32575e-07
3.66456e-06
-4.38943e-11
-5.84424e-11
-7.71559e-09
-2.14069e-08
-3.28514e-08
-3.91399e-08
-4.03688e-08
-3.78986e-08
-3.32399e-08
-2.77142e-08
-2.22043e-08
-1.71107e-08
-1.22498e-08
-8.04988e-09
-4.37729e-09
-2.07658e-09
-1.0852e-09
-6.90007e-12
7.09303e-11
1.5978e-11
4.7722e-27
1.66801e-06
6.74084e-06
-1.00813e-11
-1.22494e-11
-2.00829e-09
-5.97104e-09
-9.30872e-09
-1.1032e-08
-1.1217e-08
-1.03273e-08
-8.76525e-09
-6.92881e-09
-5.14475e-09
-3.5752e-09
-1.58002e-09
0
3.0255e-09
4.16131e-09
2.70186e-09
4.67902e-09
8.35842e-09
6.487e-09
2.29224e-09
3.85114e-10
1.0346e-10
-1.22484e-12
-1.37295e-12
-3.44229e-10
-1.08083e-09
-1.6863e-09
-1.96258e-09
-1.9414e-09
-1.71683e-09
-1.28832e-09
-6.94532e-10
-1.38218e-10
1.14017e-10
6.14112e-10
3.53911e-09
4.33463e-09
4.3225e-09
1.41157e-09
1.04683e-08
1.71873e-08
1.72084e-08
9.1856e-09
3.20262e-10
3.57795e-11
-4.75635e-14
-8.10756e-14
-2.99082e-11
-1.01637e-10
-1.61054e-10
-1.84803e-10
-1.75716e-10
-1.38085e-10
-1.1715e-11
2.38313e-10
6.40576e-10
8.0177e-10
8.0177e-10
6.62056e-10
1.45997e-09
1.51543e-09
1.20352e-09
4.05182e-11
2.40784e-11
4.36268e-11
4.31862e-11
4.8585e-11
4.71367e-11
-4.26089e-15
-2.99537e-14
-2.6714e-13
-2.66053e-12
-6.73796e-12
-8.78509e-12
-7.24376e-12
0
4.08807e-11
2.48339e-10
4.54073e-10
4.25479e-10
2.19178e-10
1.9342e-11
9.18126e-12
9.68856e-12
1.00737e-11
1.73503e-11
2.37659e-11
3.2655e-11
4.51865e-11
4.73627e-11
4.72047e-11
-1.59199e-15
-1.27657e-14
-1.11733e-13
-8.39473e-13
-2.04447e-12
-2.34235e-12
-1.34812e-12
3.47405e-12
1.05339e-11
3.14554e-11
8.07685e-11
7.52895e-11
4.48423e-11
1.41676e-11
9.06227e-12
1.0421e-11
1.35109e-11
2.01091e-11
2.2802e-11
2.01034e-11
1.58542e-11
1.07773e-11
1.08025e-11
-5.2204e-16
-4.55082e-15
-3.78106e-14
-2.22442e-13
-5.03116e-13
-4.80821e-13
-1.36682e-13
4.59199e-13
2.55884e-12
8.32118e-12
8.51524e-12
7.94258e-12
6.06812e-12
2.77316e-12
2.65219e-12
2.56902e-12
2.2146e-12
1.67509e-12
1.23296e-12
8.26413e-13
9.76442e-13
1.74828e-12
4.40357e-12
-1.42065e-16
-1.27536e-15
-9.74158e-15
-4.65454e-14
-9.31761e-14
-6.87645e-14
-8.52739e-15
8.2706e-14
5.14863e-13
1.61294e-12
1.69927e-12
1.29154e-12
5.98272e-13
1.36869e-13
1.18577e-13
1.19105e-13
1.09823e-13
7.81002e-14
7.09588e-14
1.20216e-13
4.36222e-13
1.43947e-12
5.20444e-12
-2.93362e-17
-2.54818e-16
-1.72207e-15
-6.75783e-15
-1.13036e-14
-5.64837e-15
-4.56935e-16
1.41016e-14
7.02865e-14
2.07632e-13
2.03094e-13
1.26617e-13
3.70966e-14
6.52147e-15
4.92279e-15
5.10085e-15
4.87211e-15
5.25547e-15
1.14202e-14
6.4165e-14
3.73868e-13
1.41833e-12
6.41327e-12
-3.94276e-18
-3.03003e-17
-1.69028e-16
-5.17999e-16
-6.66862e-16
-1.78069e-16
1.50085e-16
1.53066e-15
6.34511e-15
1.39131e-14
1.31573e-14
8.23495e-15
3.06892e-15
6.6472e-16
3.40534e-16
3.24167e-16
3.44766e-16
7.13079e-16
5.25797e-15
4.78754e-14
3.09545e-13
1.37651e-12
8.50319e-12
-2.72438e-19
-1.59502e-18
-6.01952e-18
-1.28055e-17
-1.27297e-17
-6.20739e-18
7.50502e-18
9.92663e-17
3.20482e-16
4.84015e-16
6.14115e-16
5.10302e-16
2.73909e-16
6.7916e-17
1.96605e-17
1.87498e-17
3.4027e-17
2.62344e-16
3.18805e-15
3.37964e-14
2.51175e-13
1.43788e-12
1.28781e-11
-2.42672e-20
-2.0434e-19
-9.70318e-19
-2.77141e-18
-4.67611e-18
-2.81353e-18
6.97325e-19
4.03633e-18
6.92335e-18
7.83797e-18
2.45392e-17
2.33298e-17
1.40055e-17
3.5789e-18
7.18147e-19
1.20471e-18
1.02781e-17
1.39915e-16
1.89599e-15
2.34758e-14
2.13878e-13
1.88794e-12
1.95677e-11
-4.47688e-21
-3.91468e-20
-1.97693e-19
-6.15078e-19
-1.19414e-18
-7.8716e-19
2.11302e-19
2.3831e-19
2.0701e-19
2.68051e-19
6.78255e-19
5.87298e-19
3.53783e-19
9.34437e-20
4.30259e-20
3.24469e-19
5.16898e-18
7.48025e-17
1.1267e-15
1.57813e-14
1.86383e-13
2.44594e-12
2.57609e-11
-4.20229e-22
-3.81299e-21
-2.04246e-20
-6.86179e-20
-1.48233e-19
-4.71348e-20
5.39589e-20
3.9633e-20
2.98628e-20
1.94677e-20
1.08408e-20
2.39315e-21
2.7562e-22
5.2828e-22
7.1363e-21
1.4547e-19
2.41633e-18
3.87394e-17
6.27803e-16
9.6368e-15
1.57386e-13
2.88389e-12
2.90737e-11
-5.36069e-25
-1.92596e-24
-1.55576e-24
-1.27239e-25
8.96397e-23
2.49751e-20
5.026e-21
1.75478e-21
1.05774e-21
1.13896e-21
8.71802e-22
2.12672e-22
1.61944e-23
1.19778e-22
2.86247e-21
5.62358e-20
1.03995e-18
1.81134e-17
3.07876e-16
5.06561e-15
1.20043e-13
3.05893e-12
2.97208e-11
-4.66515e-28
-1.24601e-27
-8.56873e-28
-6.63845e-29
-3.56899e-30
1.50232e-27
1.4389e-25
1.74272e-24
4.29727e-24
1.94558e-24
5.39663e-25
4.06675e-25
1.48185e-24
3.87128e-23
8.9733e-22
1.96441e-20
3.95713e-19
7.39862e-18
1.29024e-16
2.21129e-15
7.90566e-14
2.85173e-12
2.41443e-11
3.34398e-46
-9.84509e-47
-3.74707e-44
-2.93556e-36
1.13638e-34
6.2928e-31
2.74975e-28
2.90301e-27
9.83158e-27
1.75308e-26
2.35755e-26
3.07027e-26
3.67198e-25
1.02585e-23
2.58691e-22
6.13333e-21
1.33664e-19
2.66721e-18
4.65837e-17
7.95369e-16
4.38715e-14
1.88201e-12
1.81223e-11
2.18331e-46
-4.99847e-47
-2.47277e-44
-1.76431e-44
7.03776e-38
8.73651e-35
6.22848e-31
4.88675e-29
2.63345e-28
5.25226e-28
6.54959e-28
2.70933e-27
8.62636e-26
2.51065e-24
6.81244e-23
1.73215e-21
4.09556e-20
8.69986e-19
1.50282e-17
2.40823e-16
2.00249e-14
1.1584e-12
1.26696e-11
3.293e-47
-9.46391e-48
-8.38141e-45
-1.01995e-44
5.44345e-41
3.83508e-38
1.30623e-33
3.12612e-31
2.07611e-30
4.50786e-30
1.54318e-29
5.21082e-28
1.82697e-26
5.63547e-25
1.64453e-23
4.50764e-22
1.15021e-20
2.61367e-19
4.54752e-18
6.52921e-17
7.38129e-15
6.06432e-13
8.0474e-12
2.80006e-48
3.58644e-48
1.58898e-48
-3.04178e-45
1.56292e-41
4.6438e-39
3.90475e-37
2.38327e-35
1.44528e-33
4.67677e-32
2.24571e-30
9.9222e-29
3.3922e-27
1.14816e-25
3.66178e-24
1.08047e-22
2.95872e-21
7.22509e-20
1.31213e-18
1.69954e-17
2.1355e-15
2.70096e-13
4.73754e-12
1.29455e-49
5.7106e-50
2.28247e-50
2.91529e-48
9.59167e-43
5.99878e-40
6.92682e-38
2.55339e-36
1.35579e-34
8.09446e-33
3.76164e-31
1.44934e-29
5.83499e-28
2.1456e-26
7.47589e-25
2.38431e-23
6.90234e-22
1.78036e-20
3.36872e-19
4.12458e-18
4.64366e-16
1.024e-13
2.54006e-12
4.82333e-51
2.81195e-51
1.19941e-51
3.02299e-49
9.89803e-44
4.02483e-41
3.50812e-39
2.81706e-37
1.74649e-35
8.90263e-34
4.35058e-32
2.10434e-30
9.16203e-29
3.70196e-27
1.39855e-25
4.75551e-24
1.40857e-22
3.61724e-21
6.67426e-20
8.09475e-19
7.19746e-17
3.21083e-14
1.20936e-12
1.55877e-52
1.01302e-52
9.77312e-53
7.32424e-51
1.06217e-44
2.8697e-42
2.83715e-40
2.1874e-38
1.48548e-36
9.21901e-35
5.12294e-33
2.65495e-31
1.28891e-29
5.78012e-28
2.26921e-26
7.93238e-25
2.28987e-23
5.33929e-22
8.84116e-21
1.19712e-19
7.96094e-18
8.13735e-15
4.96477e-13
3.19819e-54
2.37753e-54
3.10582e-54
3.637e-52
6.93732e-46
1.58901e-43
1.71453e-41
1.49043e-39
1.15373e-37
8.14602e-36
5.13622e-34
2.89243e-32
1.50523e-30
7.18337e-29
2.75115e-27
9.5695e-26
2.57201e-24
5.17358e-23
7.6709e-22
1.39445e-20
7.60934e-19
1.61504e-15
1.71422e-13
6.52709e-56
5.19102e-56
3.50436e-56
2.72606e-53
2.22254e-47
6.81567e-45
8.2457e-43
8.30775e-41
7.49139e-39
5.85206e-37
4.15231e-35
2.45646e-33
1.29458e-31
6.22759e-30
2.2908e-28
7.67975e-27
1.88569e-25
4.13743e-24
6.17068e-23
8.66705e-22
2.37883e-20
2.27966e-16
4.84927e-14
7.67092e-58
-7.46791e-60
-3.65657e-56
1.15114e-54
7.53709e-49
2.30473e-46
3.22165e-44
3.73063e-42
3.5915e-40
2.94621e-38
2.25945e-36
1.45235e-34
7.89969e-33
3.91743e-31
1.50522e-29
4.92553e-28
1.22458e-26
2.22218e-25
2.29932e-24
1.01097e-23
1.72042e-21
2.3681e-17
1.0442e-14
4.60638e-60
-7.76785e-58
-4.44495e-56
-3.8183e-55
1.94421e-50
5.56548e-48
8.30062e-46
1.05298e-43
1.17878e-41
1.06516e-39
8.65556e-38
6.43155e-36
3.55311e-34
1.60565e-32
7.02718e-31
2.15744e-29
4.26243e-28
3.46846e-27
1.91728e-26
3.00532e-24
7.21971e-22
2.17857e-18
1.7105e-15
-3.25726e-61
-4.45172e-58
-3.04836e-56
-5.25165e-55
1.99877e-52
7.57183e-50
1.36419e-47
1.94797e-45
2.33439e-43
2.56214e-41
2.41828e-39
1.65201e-37
1.04187e-35
5.20481e-34
2.07496e-32
5.08221e-31
6.58436e-30
2.91713e-29
3.55615e-27
7.93518e-25
1.54383e-22
2.20085e-19
2.02901e-16
-3.66333e-61
-1.19313e-58
-9.17624e-57
-3.58205e-55
6.95957e-55
4.8548e-52
9.75306e-50
1.65735e-47
2.65609e-45
3.3529e-43
3.12262e-41
2.76527e-39
1.82501e-37
1.05665e-35
3.9794e-34
8.40761e-33
2.4417e-32
2.11246e-30
4.39981e-28
9.78816e-26
1.718e-23
1.84912e-20
1.64721e-17
-2.45228e-64
-9.98983e-63
-2.05159e-61
-2.073e-63
1.99466e-58
5.56252e-55
1.53107e-52
3.4774e-50
6.28653e-48
9.84565e-46
1.43058e-43
1.44053e-41
1.32342e-39
8.60252e-38
3.74377e-36
5.90683e-35
5.91939e-34
9.86434e-32
2.40256e-29
5.40456e-27
2.1193e-24
1.19832e-21
6.92466e-19
-1.52072e-64
-5.15928e-63
-1.18361e-61
-7.33396e-63
1.41659e-65
5.33546e-59
1.76553e-56
5.65115e-54
1.53807e-51
3.09115e-49
5.74273e-47
7.09086e-45
6.87143e-43
4.64542e-41
3.59235e-40
4.34961e-38
1.53875e-35
7.36296e-33
2.96369e-30
1.20453e-27
1.25431e-23
2.00036e-21
1.01631e-20
-2.05465e-67
-5.38802e-66
-1.83616e-64
-4.65646e-63
1.80301e-75
4.13294e-67
3.64418e-62
1.83004e-59
6.55692e-57
2.23434e-54
5.18743e-52
9.71221e-50
1.04229e-47
5.96715e-46
4.12358e-44
2.04257e-41
1.42785e-38
9.82e-36
5.28387e-33
2.16509e-30
3.76172e-26
2.47781e-23
1.96633e-22
-8.99056e-86
-6.87729e-85
-2.04189e-83
-5.33889e-86
-1.09096e-83
-2.95539e-81
1.27851e-85
2.48231e-77
1.62917e-72
2.07794e-67
1.24194e-63
2.61219e-60
3.45586e-57
8.01463e-55
3.60227e-52
3.37068e-49
2.71053e-46
2.07128e-43
1.65237e-40
1.3265e-37
4.81358e-29
1.17773e-25
1.46243e-24
-9.46162e-86
-7.70884e-85
-1.54529e-83
-3.11039e-102
-1.00464e-99
-5.976e-99
-6.71237e-96
-1.98372e-92
-1.24985e-92
-3.13913e-88
-1.62356e-85
-8.52102e-89
3.65683e-79
3.6358e-75
2.90725e-72
3.09202e-67
0
-1.06267e-56
-1.58381e-52
-9.07687e-49
7.82653e-37
3.86432e-32
2.82708e-30
0.997333
0.997333
0.998012
0.99883
0.999817
0.999618
0.99931
0.998728
0.999999
0.999998
0.999998
0.999934
0.999998
0.999998
0.999998
0.999998
0.999998
0.999998
0.999998
0.999283
0.141177
0.134155
0.131366
0.210621
8.8231e-09
2.93391e-08
5.16605e-08
5.1193e-08
4.85041e-06
3.48287e-06
1.61215e-06
1.36903e-06
6.9193e-06
6.94719e-06
6.95691e-06
6.95691e-06
1.39861e-06
6.29163e-06
6.92853e-06
6.94018e-06
1.84393e-11
1.21137e-11
9.19003e-12
8.10912e-12
4.69949e-11
4.7752e-11
4.91165e-11
5.07372e-11
4.71488e-11
4.73857e-11
4.83978e-11
5.04435e-11
1.18459e-11
1.38122e-11
1.77692e-11
2.22557e-11
7.98058e-12
1.16377e-11
1.721e-11
2.63207e-11
1.09223e-11
1.74197e-11
2.89502e-11
4.95871e-11
1.45708e-11
2.46538e-11
4.63978e-11
6.7528e-11
2.0983e-11
4.0189e-11
7.46639e-11
6.84427e-11
3.30098e-11
6.81398e-11
9.13937e-11
7.2661e-11
4.8953e-11
8.73569e-11
1.08368e-10
7.90395e-11
6.14073e-11
8.93684e-11
1.65814e-10
1.13727e-10
6.58517e-11
9.15115e-11
2.18501e-10
2.87306e-10
6.52871e-11
9.98018e-11
2.4175e-10
4.67309e-10
5.54861e-11
1.10086e-10
2.90673e-10
6.44498e-10
4.65238e-11
1.18275e-10
3.41339e-10
8.10695e-10
3.79565e-11
1.21931e-10
3.80528e-10
8.63023e-10
3.05086e-11
1.22378e-10
3.63252e-10
7.47768e-10
2.39017e-11
1.08436e-10
2.40573e-10
3.6904e-10
1.67166e-11
7.24837e-11
1.42491e-10
1.96568e-10
9.86808e-12
4.05669e-11
6.61914e-11
7.5525e-11
4.56502e-12
1.67378e-11
2.51135e-11
3.2816e-11
1.63027e-12
5.36955e-12
8.086e-12
1.29329e-11
4.59163e-13
1.3804e-12
1.98854e-12
2.99137e-12
9.83594e-14
2.8754e-13
3.9462e-13
4.46713e-13
1.70667e-14
4.82113e-14
5.82433e-14
4.39364e-14
2.17722e-15
6.53591e-15
7.95249e-15
4.18609e-15
1.94005e-16
7.81523e-16
1.27928e-15
8.90706e-16
8.72363e-18
6.85366e-17
1.75033e-16
1.69849e-16
3.78301e-20
1.81835e-18
9.14096e-18
2.57029e-17
1.81594e-23
1.01818e-21
5.07571e-20
9.07196e-19
3.94877e-28
5.70725e-26
7.81315e-24
-3.2072e-20
0
-2.43065e-42
0
-1.85555e-24
0.84283
0.136619
0.015237
0.0459264
0.0368539
0.00631816
0.000147163
0.000209422
0.00016041
6.06271e-05
2.35394e-05
5.30022e-06
9.31952e-07
1.02348e-07
5.07905e-09
1.52467e-10
-1.35082e-11
-1.32055e-12
-2.44561e-14
0.999986
0.97726
0.972477
0.964271
0.811085
0.48424
0.318185
0.213038
0.0913089
0.00935097
0.00022201
6.5126e-05
1.10415e-05
1.27562e-06
8.90911e-08
-4.94373e-10
-9.90482e-10
-9.40907e-11
-6.82271e-12
0.999993
0.999987
0.999971
0.999966
0.999964
0.999962
0.999959
0.991926
0.834178
0.494574
0.17705
0.0182182
0.000250716
3.2162e-05
3.04858e-06
-1.49084e-07
-1.65685e-08
-4.51917e-09
-4.11597e-10
0.999997
0.999997
0.999977
0.999965
0.999964
0.999959
0.999956
0.99985
0.99974
0.999734
0.942364
0.54943
0.0902541
0.000687968
7.87314e-05
7.36072e-06
-2.79573e-07
-8.03578e-08
-8.70685e-09
0.997579
0.997403
0.999959
0.999968
0.999923
0.999874
0.999856
0.999747
0.999726
0.999733
0.999418
0.999103
0.764877
0.166277
0.0012496
0.000144287
1.19214e-05
3.38616e-08
2.26434e-08
0.373749
0.453878
0.581481
0.665617
0.662988
0.693396
0.783034
0.895301
0.969346
0.997627
0.999103
0.99822
0.997469
0.764879
0.132633
0.00127998
0.000146685
4.13898e-06
1.98037e-06
3.58252e-08
1.80968e-08
6.69051e-09
3.80416e-09
3.33636e-09
1.43428e-09
0.0505971
0.175241
0.342136
0.594212
0.886739
0.996294
0.997193
0.994711
0.583763
0.034695
0.000583805
4.26649e-05
1.61382e-05
1.57593e-06
1.37664e-06
7.2347e-07
1.04752e-07
1.44928e-09
-3.04334e-25
-7.52863e-10
-5.46577e-09
-7.21598e-09
-1.84797e-09
0.157047
0.727749
0.993955
0.989151
0.874996
0.206911
0.00151663
0.000132937
7.67225e-05
6.95691e-06
6.94291e-06
5.01557e-06
1.77681e-07
1.65996e-09
-5.70606e-19
-1.29347e-09
-1.80001e-08
-3.14036e-08
-3.03769e-08
-1.19709e-08
0.0836641
0.733042
0.98589
0.940073
0.358136
0.0024092
0.000251128
0.000223326
5.65202e-06
7.16926e-07
7.58069e-12
5.34994e-09
6.62622e-10
-3.68408e-10
-1.30136e-08
-3.75937e-08
-6.2759e-08
-6.71628e-08
-4.38783e-08
-5.35253e-09
0.310266
0.937572
0.928309
0.440171
0.00698595
0.000449333
0.000426124
8.16063e-12
7.30893e-12
5.36968e-12
-1.19305e-27
-1.73699e-11
-5.82176e-11
-3.36001e-10
-1.15166e-09
-2.31026e-09
-3.11341e-09
-2.72935e-09
-1.07371e-09
0.0958703
0.78802
0.909286
0.476037
0.0111435
0.00058549
0.000615175
5.59844e-11
7.74544e-11
1.25847e-10
1.61144e-10
2.14475e-10
5.42061e-10
1.28494e-09
-2.46157e-12
0
0
-2.06138e-10
-1.3262e-10
0.0137897
0.630433
0.892188
0.512412
0.0202625
0.000710687
0.000807558
5.92833e-11
1.05254e-10
2.18233e-10
2.66136e-10
2.43983e-10
2.46322e-10
6.88846e-09
2.6564e-08
2.01226e-08
4.81165e-09
8.53615e-11
-1.90209e-26
6.58937e-11
0.526288
0.858523
0.499269
0.0208574
0.000899725
0.000920693
3.92669e-11
1.3348e-10
2.76898e-10
3.1475e-10
2.79708e-10
2.49691e-10
2.54094e-10
2.16924e-07
6.28301e-07
2.68567e-07
4.09707e-10
6.58962e-11
2.14568e-09
0.4725
0.824552
0.443239
0.0132778
0.000808859
0.000860565
6.49242e-11
1.97137e-10
3.09604e-10
3.1883e-10
2.85999e-10
2.54094e-10
2.58229e-10
2.51703e-07
8.58112e-07
5.33246e-07
1.09531e-08
2.14539e-09
6.70235e-09
0.460381
0.773232
0.325887
0.00227064
0.00068149
0.000541767
1.0021e-10
2.01631e-10
3.07876e-10
3.16602e-10
2.8291e-10
2.60061e-10
2.69995e-10
9.622e-07
2.37211e-06
1.09401e-06
1.46129e-08
6.70233e-09
0.041492
0.525503
0.596255
0.168102
0.00220724
0.00128392
0.000420631
2.32677e-10
2.79465e-10
3.97301e-10
3.26234e-10
2.83099e-10
2.71826e-10
4.92129e-10
4.35735e-06
5.5971e-06
1.195e-06
2.46863e-08
1.46372e-08
0.0903575
0.550027
0.444524
0.0492728
0.00191019
0.00204026
0.000380883
1.93802e-09
2.30025e-09
1.82302e-09
3.74031e-10
2.87824e-10
3.49207e-10
2.03908e-06
7.25209e-06
5.82289e-06
5.97288e-07
3.00395e-08
2.46864e-08
0.190579
0.561255
0.371506
0.0158907
0.00138575
0.00189834
0.000362767
4.01408e-09
9.40702e-09
5.36882e-09
5.57845e-10
3.573e-10
9.8758e-10
6.62156e-06
7.25209e-06
4.53323e-06
1.51926e-07
7.73217e-08
0.0572234
0.450032
0.561255
0.350166
0.00909886
0.000856984
0.00100749
0.000419217
3.23169e-09
1.45245e-08
7.86525e-09
4.978e-08
9.68398e-10
1.36312e-06
1.00017e-05
4.73267e-06
5.40221e-07
1.33588e-07
1.24511e-07
0.160907
0.524507
0.561255
0.274411
0.0024974
0.000419719
0.000223368
0.000227641
5.44847e-10
1.51011e-08
8.25282e-09
3.14043e-07
7.66072e-09
3.09833e-06
1.0824e-05
4.0218e-06
3.25139e-07
1.79844e-07
1.33588e-07
0.0837827
0.293383
0.288833
0.132159
0.00257541
0.000739757
0.000131528
8.21732e-05
2.93708e-10
1.64577e-08
7.24076e-09
2.51164e-07
3.81359e-07
6.85384e-06
1.62033e-05
1.57833e-05
1.32468e-06
2.13073e-07
0.000847177
0.00132276
0.00244087
0.00880921
0.0256977
0.00506344
0.000859754
0.000166836
5.63648e-05
1.4366e-09
1.67374e-08
7.12772e-09
7.2843e-09
9.69907e-06
1.27273e-05
1.62033e-05
1.4645e-05
1.2411e-06
2.93033e-07
3.64059e-07
0.00102176
0.000854107
0.000587964
0.00610061
0.0037155
0.000617347
0.000218111
4.08698e-05
2.63731e-09
8.8346e-09
2.44898e-08
7.15183e-09
1.47327e-05
1.75449e-05
1.16483e-05
5.50515e-06
1.4784e-06
0.00653214
0.00942338
0.00441505
0.000599778
0.00057558
0.0022015
0.00168288
0.000254344
0.000169218
3.45116e-05
3.4538e-09
3.51231e-09
4.59375e-08
7.63473e-09
7.82959e-06
1.63071e-05
9.37886e-06
5.32607e-06
1.64574e-06
0.112085
0.146169
0.0243433
0.000548581
0.000542494
0.000321179
0.00102371
7.27132e-05
3.11554e-05
1.78705e-05
2.11471e-09
2.18546e-09
4.46067e-08
2.75326e-08
3.00928e-08
6.71064e-05
1.83114e-05
5.85671e-06
0.0466092
0.186767
0.187839
0.0937618
0.000873992
0.000294933
0.000257549
0.000441221
6.10435e-05
1.34524e-05
8.9157e-06
1.46577e-09
2.3421e-09
4.63625e-09
1.21004e-07
1.04804e-07
8.56448e-05
3.335e-05
7.02979e-06
0.0446148
0.187856
0.188552
0.170895
0.0135644
0.000246205
0.000204756
8.34337e-05
6.07402e-05
2.02159e-05
6.85424e-06
1.04887e-09
1.73195e-09
4.49042e-09
1.23328e-07
2.72678e-09
5.49428e-05
0.0001399
8.61025e-06
1.28583e-05
0.166426
0.190022
0.190766
0.0523987
0.000212685
0.000127118
6.05218e-05
2.53281e-05
1.96522e-05
6.29837e-06
3.84417e-10
6.38649e-10
6.6572e-09
2.89326e-08
2.57335e-09
4.77144e-08
0.000471658
3.50111e-05
3.17461e-05
0.112834
0.190797
0.190848
0.0862421
0.000249133
5.82117e-05
4.33123e-05
1.09969e-05
4.88873e-06
3.18228e-06
1.87878e-10
6.78645e-10
2.40367e-09
1.91167e-10
2.55025e-09
2.00364e-09
0.000452749
0.000306926
7.27938e-05
0.062159
0.190738
0.190819
0.122775
0.00129421
3.2772e-05
1.5808e-05
1.55701e-05
1.80623e-06
1.05688e-06
9.58848e-11
1.95088e-10
9.10463e-11
1.82917e-10
7.75219e-09
1.69465e-09
8.63891e-05
0.00185583
9.02177e-05
0.0172548
0.189757
0.190801
0.191082
0.0264967
3.70419e-05
1.21383e-05
1.15779e-05
2.00651e-06
6.85903e-07
3.41597e-11
5.4015e-11
9.09366e-11
1.17875e-10
1.11666e-09
1.37593e-09
8.94904e-05
0.00187094
0.00155524
0.00158189
0.16191
0.190987
0.191132
0.0776196
7.39658e-05
7.05567e-06
3.79925e-06
2.82769e-06
5.10486e-07
1.27458e-11
3.1877e-11
7.95251e-11
9.37879e-11
1.56168e-10
1.91509e-09
2.17369e-05
0.000437297
0.00196403
0.00174995
0.0882813
0.191158
0.191097
0.0736631
0.000114511
4.55096e-05
5.65554e-06
2.36064e-06
4.41399e-07
3.61778e-12
1.23491e-11
5.65235e-11
1.48782e-10
2.3567e-10
6.89011e-09
3.39598e-08
5.74232e-06
0.00105143
0.00219367
0.00443336
0.11441
0.112929
0.0343971
0.000395227
3.0341e-05
9.85622e-06
4.47935e-07
2.78581e-07
6.33984e-13
1.88273e-12
4.32566e-12
2.95271e-11
3.52268e-10
1.97634e-08
1.17961e-06
0.000103633
0.0001736
0.000487568
0.000261774
0.0024714
0.00226458
0.00101802
0.000197025
7.67559e-06
8.67247e-06
1.08105e-07
4.55506e-08
9.74984e-14
4.79309e-13
2.06469e-12
1.58233e-11
4.02131e-10
3.00369e-07
3.06056e-06
2.32892e-06
2.8999e-05
0.000162957
0.000240276
5.67701e-05
0.000131932
3.78572e-05
4.95583e-06
2.15528e-06
2.74593e-06
5.26963e-08
1.82666e-08
4.00827e-14
8.60054e-13
5.04007e-12
8.36433e-12
3.73593e-11
6.14486e-10
1.01874e-08
1.62835e-06
2.97052e-05
4.04708e-05
4.06637e-05
1.64265e-05
2.85446e-05
1.20001e-05
2.11339e-06
6.50033e-07
5.34679e-08
1.71841e-08
7.74931e-09
1.84639e-14
9.10483e-13
5.90439e-12
1.00892e-11
3.37152e-11
4.78872e-10
5.82022e-08
2.41053e-06
2.94418e-06
4.66161e-06
3.54991e-06
8.97177e-06
6.31097e-06
3.81641e-06
7.93605e-07
2.3887e-07
2.47911e-08
6.8696e-09
3.36979e-09
1.93334e-15
4.34807e-13
7.63077e-12
2.67813e-11
3.1787e-11
1.06731e-10
1.74166e-08
1.3915e-07
4.07946e-07
5.77363e-07
1.19579e-06
2.20242e-06
1.40623e-06
1.1512e-06
2.80319e-07
8.20526e-08
9.71163e-09
2.99518e-09
1.79249e-09
7.11288e-17
1.04889e-14
2.35009e-12
2.89381e-11
7.36327e-11
7.58885e-11
1.27863e-10
4.11492e-09
7.20834e-08
1.58356e-07
2.90203e-07
2.98238e-07
3.62451e-07
3.62589e-07
1.00824e-07
2.98486e-08
4.6584e-09
1.63844e-09
1.30023e-09
7.366e-20
2.09094e-17
3.14903e-14
4.13042e-12
5.75238e-11
2.03689e-10
3.17904e-10
5.50908e-10
1.07228e-08
3.8193e-08
4.5003e-08
4.65912e-08
9.85909e-08
1.00528e-07
3.62731e-08
1.11384e-08
2.90886e-09
1.3051e-09
5.84495e-10
-7.23139e-25
-2.78932e-24
1.54383e-18
2.53845e-14
4.12405e-12
4.6836e-11
1.60195e-10
2.87999e-10
3.34328e-10
8.3187e-10
3.65504e-09
1.83344e-08
3.94923e-08
3.63565e-08
1.42058e-08
5.51065e-09
1.48669e-09
1.04059e-09
5.47218e-10
)
;

boundaryField
{
    leftWall
    {
        type            zeroGradient;
    }
    rightWall
    {
        type            zeroGradient;
    }
    lowerWall
    {
        type            zeroGradient;
    }
    atmosphere
    {
        type            inletOutlet;
        inletValue      uniform 0;
        value           nonuniform List<scalar> 
46
(
0
0
0
0
0
0
0
0
0
0
0
0
0
0
0
0
0
0
0
0
0
0
0
0
0
0
0
0
0
0
0
0
0
0
2.87999e-10
3.34328e-10
8.3187e-10
3.65504e-09
1.83344e-08
3.94923e-08
3.63565e-08
1.42058e-08
5.51065e-09
1.48669e-09
1.04059e-09
5.47218e-10
)
;
    }
    defaultFaces
    {
        type            empty;
    }
}


// ************************************************************************* //
