/*--------------------------------*- C++ -*----------------------------------*\
| =========                 |                                                 |
| \\      /  F ield         | OpenFOAM: The Open Source CFD Toolbox           |
|  \\    /   O peration     | Version:  v2012                                 |
|   \\  /    A nd           | Website:  www.openfoam.com                      |
|    \\/     M anipulation  |                                                 |
\*---------------------------------------------------------------------------*/
FoamFile
{
    version     2.0;
    format      ascii;
    class       volScalarField;
    location    "0.4";
    object      epsilon;
}
// * * * * * * * * * * * * * * * * * * * * * * * * * * * * * * * * * * * * * //

dimensions      [0 2 -3 0 0 0 0];


internalField   nonuniform List<scalar> 
2268
(
0.0385059
0.124164
0.243562
0.35589
0.458313
0.547511
0.629739
0.707626
0.782263
0.853395
0.919668
0.978856
1.02803
1.06349
1.08033
1.07193
1.04823
0.997554
0.917483
0.812672
0.690641
0.544681
0.373728
0.0472607
0.0812297
0.13166
0.178371
0.217264
0.251109
0.282075
0.311473
0.339919
0.367471
0.393789
0.418291
0.440292
0.459142
0.474445
0.487443
0.505669
0.529074
0.560578
0.602273
0.64115
0.573548
0.45463
0.057852
0.0808806
0.117826
0.150453
0.177519
0.200652
0.221441
0.240971
0.259795
0.278046
0.295589
0.312158
0.327501
0.34155
0.354693
0.368495
0.387895
0.416549
0.460494
0.526247
0.606253
0.622914
0.764243
0.0675723
0.0868899
0.116201
0.142074
0.163658
0.182088
0.1986
0.214055
0.228896
0.243243
0.257024
0.270107
0.282432
0.294188
0.306084
0.319878
0.33958
0.369648
0.416469
0.487043
0.579124
0.666021
1.12477
0.078966
0.0946978
0.11832
0.13915
0.156849
0.172278
0.186322
0.199574
0.212313
0.224594
0.236361
0.247558
0.258244
0.268764
0.280005
0.293829
0.313839
0.344685
0.392749
0.465262
0.565021
0.711971
1.44752
0.0889742
0.102546
0.121432
0.137938
0.152433
0.165614
0.178022
0.189947
0.201475
0.212577
0.223188
0.233301
0.24306
0.25292
0.263876
0.277834
0.298177
0.329574
0.378536
0.453241
0.562718
0.7672
1.77407
0.0965541
0.109137
0.124078
0.136873
0.148703
0.160165
0.171461
0.182577
0.193407
0.203832
0.213777
0.223269
0.232523
0.242068
0.252969
0.267138
0.287797
0.319584
0.369271
0.446632
0.568887
0.834182
2.14352
0.101782
0.113908
0.125478
0.13518
0.144928
0.155177
0.16578
0.176445
0.186901
0.196957
0.206533
0.215689
0.224694
0.234138
0.245122
0.25954
0.280462
0.312444
0.362523
0.442189
0.577671
0.904088
2.6565
0.066368
0.239773
0.380489
0.504233
0.623084
0.747885
0.852833
0.918451
0.926735
0.904722
0.825975
0.704146
0.563274
0.425727
0.323005
0.240788
0.169428
0.102472
0.0308708
0.120885
0.205708
0.246583
0.269559
0.300439
0.341225
0.37854
0.403479
0.402826
0.377229
0.331652
0.275011
0.218484
0.171825
0.144908
0.128258
0.111937
0.0849137
0.0448163
0.201126
0.214992
0.234747
0.253632
0.288
0.328916
0.367809
0.393914
0.390364
0.359219
0.310505
0.252985
0.19715
0.152396
0.125609
0.113195
0.105419
0.0884136
0.0707086
0.272515
0.242209
0.261189
0.297807
0.353696
0.405519
0.449862
0.475479
0.46331
0.421058
0.36192
0.294524
0.228755
0.174738
0.140495
0.123762
0.114677
0.0989348
0.0986988
0.334517
0.29577
0.324581
0.411892
0.516336
0.574704
0.612449
0.622833
0.589914
0.528118
0.452819
0.3716
0.29173
0.223543
0.177499
0.152112
0.136699
0.116716
0.131238
0.408019
0.430752
0.457152
0.674924
0.857118
0.877659
0.872062
0.836471
0.764275
0.671612
0.575158
0.478748
0.384041
0.299441
0.238623
0.201316
0.175377
0.14554
0.17257
0.725801
0.703941
0.724497
1.22887
1.39259
1.28317
1.18256
1.08048
0.958639
0.830218
0.71402
0.606591
0.502143
0.403752
0.328417
0.27833
0.238941
0.193245
0.230293
1.77919
1.45345
1.24593
1.22551
1.26526
1.3982
1.30696
1.1866
1.07421
0.951388
0.835624
0.732846
0.632965
0.532086
0.449413
0.391883
0.340314
0.274161
0.318859
0.105108
0.11753
0.125312
0.131809
0.13955
0.148702
0.158712
0.168996
0.179122
0.188837
0.198062
0.206902
0.215687
0.225068
0.236168
0.250823
0.271936
0.303841
0.353641
0.434353
0.57802
0.893989
1.75493
0.104144
0.117637
0.120605
0.124444
0.13137
0.1405
0.150676
0.161083
0.171242
0.180919
0.190079
0.198887
0.207729
0.21729
0.228674
0.243591
0.264613
0.295546
0.342414
0.415854
0.53859
0.76839
1.24281
0.100479
0.112566
0.113442
0.117341
0.12501
0.134788
0.145336
0.155918
0.166145
0.175847
0.185037
0.193915
0.202894
0.212667
0.224314
0.239444
0.260353
0.29027
0.333532
0.397249
0.495066
0.652653
0.898224
0.0986672
0.102232
0.108692
0.114792
0.123357
0.133432
0.14401
0.154539
0.164693
0.174327
0.183479
0.192366
0.201418
0.211352
0.223291
0.238916
0.260496
0.290799
0.332026
0.388361
0.467367
0.575465
0.708544
0.179261
0.133089
0.127609
0.127483
0.131295
0.1386
0.147618
0.157237
0.166835
0.176121
0.185044
0.193763
0.202662
0.212427
0.224177
0.239597
0.262339
0.297646
0.341359
0.400234
0.474522
0.552728
0.630834
0.50062
0.289124
0.264736
0.246518
0.229789
0.221479
0.219949
0.222974
0.229305
0.238301
0.249689
0.263423
0.279538
0.297957
0.31798
0.337209
0.348781
0.323483
0.348239
0.404544
0.483292
0.562417
0.628554
0.595057
0.335018
0.319825
0.29123
0.269571
0.257826
0.253536
0.25443
0.259271
0.267534
0.27915
0.29439
0.313773
0.337918
0.367043
0.399524
0.430098
0.459325
0.49654
0.54954
0.592018
0.590088
0.634923
0.546429
0.321238
0.303794
0.288581
0.2769
0.270637
0.269338
0.272008
0.277988
0.287068
0.299424
0.315546
0.336171
0.362131
0.393954
0.430986
0.470447
0.50875
0.546511
0.591884
0.640484
0.689816
0.741406
0.531457
0.307878
0.279328
0.268995
0.264529
0.2642
0.267304
0.273283
0.281827
0.292947
0.306957
0.324438
0.34616
0.372934
0.40529
0.442887
0.483903
0.52555
0.567696
0.615088
0.668446
0.718046
0.754488
0.535558
0.299048
0.258581
0.247696
0.246281
0.249547
0.255877
0.264587
0.275432
0.288492
0.304128
0.322935
0.345675
0.373133
0.405874
0.443859
0.486089
0.530917
0.57783
0.628792
0.684291
0.738129
0.781654
0.546628
0.291705
0.241788
0.228681
0.227721
0.232335
0.24019
0.25035
0.262497
0.276691
0.293278
0.312837
0.336109
0.363881
0.396807
0.435155
0.478603
0.526377
0.578045
0.634056
0.693836
0.752852
0.803974
0.557543
0.283769
0.227499
0.212168
0.210492
0.215034
0.22307
0.233477
0.245847
0.260187
0.276806
0.296249
0.319227
0.346533
0.378897
0.416835
0.460498
0.509715
0.564273
0.624007
0.687809
0.752155
0.811532
0.564043
0.274528
0.214638
0.197636
0.194902
0.198679
0.206086
0.215903
0.22766
0.241317
0.257139
0.275629
0.297463
0.323417
0.35427
0.390685
0.433117
0.481786
0.536722
0.597692
0.66362
0.731819
0.797869
0.564155
0.263945
0.202607
0.184599
0.180877
0.183665
0.190067
0.198838
0.209476
0.221909
0.236364
0.253301
0.273353
0.297268
0.325831
0.359787
0.39977
0.446256
0.499533
0.55957
0.625646
0.695825
0.766494
0.557561
0.252287
0.191122
0.172713
0.168234
0.170065
0.175373
0.18293
0.19223
0.203181
0.21598
0.231048
0.248973
0.270468
0.296304
0.327266
0.3641
0.407473
0.457933
0.515773
0.580748
0.651592
0.72531
0.544934
0.239923
0.180062
0.161739
0.156771
0.157793
0.162075
0.168434
0.176375
0.185798
0.196877
0.209998
0.225709
0.244685
0.267681
0.295503
0.328981
0.368953
0.416227
0.47147
0.534932
0.605935
0.681951
0.527495
0.227204
0.169398
0.151522
0.146308
0.146698
0.150093
0.155366
0.162046
0.170029
0.179472
0.190731
0.20432
0.22088
0.241152
0.265963
0.296223
0.332936
0.377179
0.430003
0.492148
0.563445
0.641705
0.506693
0.214459
0.15917
0.141985
0.136712
0.136636
0.139297
0.143637
0.149206
0.155908
0.163882
0.17346
0.185124
0.199491
0.217293
0.239381
0.266755
0.300584
0.342222
0.393111
0.454469
0.526584
0.607497
0.484025
0.202017
0.149476
0.13312
0.127915
0.127502
0.129572
0.13313
0.13776
0.143364
0.150074
0.158195
0.168186
0.18064
0.19629
0.216021
0.24092
0.272335
0.311898
0.361451
0.422688
0.49633
0.580579
0.460918
0.190211
0.140458
0.124971
0.119899
0.119241
0.120833
0.12375
0.127602
0.132296
0.137952
0.144853
0.153435
0.164277
0.178112
0.195865
0.218718
0.248194
0.286214
0.335026
0.396817
0.472744
0.561147
0.43867
0.179373
0.132281
0.117621
0.112692
0.111838
0.113037
0.115427
0.118645
0.122602
0.127402
0.133311
0.140742
0.15026
0.162604
0.178739
0.19994
0.227908
0.264855
0.313449
0.376395
0.455326
0.548733
0.418422
0.169822
0.125119
0.111168
0.106341
0.105304
0.106164
0.108117
0.110821
0.114188
0.118309
0.123429
0.12994
0.138395
0.149538
0.164369
0.184256
0.211072
0.247318
0.2961
0.360679
0.443224
0.542446
0.401146
0.161852
0.11913
0.105707
0.100901
0.0996625
0.10021
0.101788
0.104071
0.106969
0.110557
0.115061
0.12085
0.128463
0.138645
0.152431
0.171269
0.197197
0.233004
0.282238
0.348765
0.435382
0.541126
0.387672
0.15572
0.114454
0.10132
0.0964181
0.0949324
0.095171
0.0964137
0.0983437
0.100864
0.104035
0.108059
0.113283
0.12023
0.129642
0.142579
0.160561
0.185774
0.221281
0.271083
0.339689
0.430634
0.543454
0.378714
0.151651
0.111203
0.0980658
0.0929209
0.0911217
0.091036
0.0919625
0.0935844
0.0957935
0.0986316
0.102277
0.107056
0.113469
0.122252
0.134478
0.151726
0.176309
0.211544
0.261874
0.332493
0.427791
0.548035
0.37492
0.149848
0.109458
0.0959751
0.0904146
0.0882202
0.0877814
0.0883963
0.0897367
0.0916779
0.0942407
0.09758
0.101996
0.107968
0.116217
0.127822
0.144396
0.16836
0.203248
0.253923
0.326281
0.425692
0.55344
0.37692
0.15049
0.109267
0.0950451
0.0888772
0.0861965
0.0853687
0.0856668
0.0867394
0.0884386
0.0907621
0.0938401
0.0979472
0.103537
0.111312
0.122341
0.138257
0.161549
0.195929
0.246634
0.32025
0.423238
0.55823
0.385371
0.153739
0.110637
0.0952358
0.0882559
0.0849963
0.0837428
0.0837158
0.0845264
0.0859976
0.0881016
0.0909434
0.0947714
0.100013
0.107343
0.117812
0.133047
0.15557
0.189213
0.239519
0.313719
0.419431
0.560978
0.400977
0.159723
0.113526
0.0964637
0.0884659
0.0845422
0.082833
0.0824751
0.0830275
0.0842781
0.0861715
0.0887878
0.0923495
0.0972552
0.10415
0.114051
0.128558
0.150183
0.182815
0.23221
0.306148
0.413412
0.56031
0.424494
0.168504
0.117821
0.0985964
0.0893886
0.0847345
0.0825541
0.0818681
0.0821694
0.0832049
0.0848907
0.0872827
0.0905782
0.095147
0.101599
0.110908
0.124623
0.145207
0.176531
0.224452
0.297159
0.404505
0.554978
0.456701
0.18003
0.123325
0.101448
0.0908733
0.0854539
0.0828095
0.0818124
0.0818765
0.0827042
0.0841832
0.0863464
0.0893675
0.0935873
0.0995777
0.10826
0.121112
0.140507
0.170227
0.216098
0.286538
0.392272
0.543953
0.498336
0.194078
0.129744
0.104779
0.092741
0.0865665
0.0834951
0.082222
0.082073
0.0827047
0.083978
0.0859053
0.0886384
0.0924898
0.0979913
0.106005
0.11792
0.135985
0.163817
0.207089
0.274236
0.37655
0.526537
0.550039
0.21021
0.13668
0.108304
0.094793
0.0879312
0.0845049
0.0830113
0.0826847
0.0831381
0.0842091
0.085893
0.0883218
0.0917805
0.0967592
0.104056
0.114958
0.131559
0.157249
0.197426
0.260334
0.357526
0.502336
0.612337
0.227781
0.143649
0.111703
0.0968236
0.0894098
0.0857384
0.0841
0.0836419
0.0839406
0.0848165
0.0862512
0.0883594
0.0913985
0.0958158
0.10234
0.112151
0.127162
0.150487
0.187149
0.244815
0.334723
0.471108
0.685774
0.245993
0.150102
0.114646
0.098636
0.0908785
0.0871078
0.0854172
0.084882
0.0850547
0.0857467
0.0869306
0.0887048
0.0912987
0.0951138
0.100808
0.109442
0.12274
0.14346
0.176063
0.22762
0.308767
0.433954
0.771246
0.263914
0.155435
0.116804
0.10006
0.0922406
0.0885464
0.0869064
0.0863521
0.0864305
0.0869542
0.0878916
0.0893253
0.0914549
0.0946323
0.0994374
0.106808
0.118229
0.136105
0.164337
0.209175
0.280353
0.391956
0.87061
0.280547
0.158961
0.117872
0.100969
0.0934382
0.0900143
0.088528
0.0880099
0.0880258
0.0884013
0.0891046
0.0902031
0.0918633
0.0943825
0.0982546
0.104269
0.113689
0.128556
0.152162
0.189841
0.250149
0.346215
0.986904
0.294626
0.159769
0.117579
0.101302
0.0944627
0.0915024
0.0902601
0.0898239
0.0898062
0.0900573
0.0905488
0.0913329
0.0925405
0.0944083
0.0973323
0.101949
0.109293
0.121023
0.139816
0.170025
0.218808
0.297764
1.12471
0.302598
0.156821
0.115707
0.101087
0.0953626
0.0930318
0.0920966
0.0917717
0.0917438
0.0918968
0.0922089
0.0927171
0.0935157
0.0947775
0.096794
0.100045
0.105315
0.113875
0.127772
0.150344
0.187173
0.24776
1.2924
0.299377
0.149018
0.112255
0.10047
0.096247
0.094649
0.0940422
0.093837
0.0938141
0.0938963
0.0940692
0.0943559
0.0948161
0.0955606
0.0967795
0.0987922
0.10213
0.10766
0.116796
0.131842
0.156688
0.198198
1.5071
0.274797
0.135383
0.107532
0.0997657
0.0972775
0.0964138
0.0961062
0.0960066
0.095995
0.0960312
0.0961077
0.0962362
0.0964471
0.0967981
0.0973897
0.0983943
0.100103
0.102999
0.107877
0.116039
0.129674
0.152705
1.80851
0.206277
0.115851
0.102464
0.0994694
0.0986409
0.0983805
0.0982941
0.0982681
0.0982658
0.0982754
0.0982946
0.0983268
0.0983813
0.0984761
0.098643
0.098938
0.0994564
0.100359
0.10191
0.104542
0.108963
0.116402
3.86934
3.30966
2.75197
2.26739
1.647
1.74782
1.72925
1.66472
1.05411
1.14789
1.19941
1.21645
0.791246
0.852787
0.90423
0.943404
0.681513
0.722092
0.76048
0.794887
0.666304
0.698383
0.732012
0.759328
0.670605
0.703043
0.736212
0.761884
0.780213
0.813038
0.843931
0.870106
0.775882
0.794259
0.814102
0.835223
0.8051
0.823321
0.841996
0.861941
0.832701
0.854813
0.877046
0.900312
0.847659
0.875875
0.904281
0.933628
0.840604
0.87453
0.909189
0.945237
0.81448
0.853034
0.892976
0.934924
0.777315
0.819411
0.863493
0.91017
0.737235
0.782143
0.829502
0.87991
0.700021
0.747386
0.797511
0.850957
0.668977
0.718734
0.771405
0.827472
0.645628
0.697917
0.753128
0.811618
0.630351
0.685443
0.743339
0.804229
0.62279
0.681035
0.741866
0.805275
0.622108
0.683898
0.747993
0.81416
0.627152
0.692894
0.760646
0.829933
0.636577
0.706684
0.778552
0.851442
0.648937
0.723819
0.800317
0.877423
0.662705
0.742745
0.824436
0.906495
0.676262
0.761775
0.84923
0.937074
0.687889
0.779046
0.872778
0.967267
0.695782
0.792534
0.89291
0.994829
0.698117
0.800107
0.907242
1.01717
0.693145
0.799634
0.913294
1.03152
0.679338
0.789225
0.908767
1.03546
0.654882
0.766441
0.890285
1.02444
0.619928
0.730786
0.856424
0.995649
0.575249
0.68255
0.8068
0.947757
0.522006
0.622772
0.742092
0.88077
0.461615
0.552956
0.66371
0.795757
0.395439
0.474581
0.573104
0.693953
0.324862
0.388999
0.471318
0.575772
0.252306
0.298592
0.360118
0.441487
0.183082
0.209661
0.24618
0.296665
0.126035
0.134452
0.146124
0.162577
1.5251
1.461
1.28973
1.11327
1.04784
1.00107
0.927496
0.883052
0.878937
0.94396
0.910132
0.849616
0.792748
0.734959
0.681827
0.641388
0.588666
0.493448
0.595125
1.52128
1.40374
1.23471
1.11173
1.03192
0.963004
0.897843
0.85422
0.823734
0.798701
0.776174
0.795744
0.858145
0.928981
1.01841
1.11323
1.14831
1.03938
1.24642
1.19408
1.14047
1.07802
1.02206
0.973805
0.928234
0.885593
0.848286
0.815151
0.783922
0.757204
0.738765
0.739139
0.909442
1.18502
1.61119
2.05063
2.16925
2.68934
0.986123
0.98864
0.97017
0.942057
0.911519
0.881631
0.853095
0.826099
0.800277
0.775465
0.752423
0.731616
0.713766
0.723512
1.15073
1.79292
2.99911
4.09015
5.49996
0.845089
0.873927
0.88118
0.87433
0.859988
0.841846
0.821724
0.801079
0.780728
0.760764
0.74119
0.722343
0.705443
0.694605
0.748074
1.56508
3.2993
6.32046
9.82173
0.793123
0.820722
0.8356
0.837986
0.833074
0.821897
0.805416
0.786658
0.767429
0.748301
0.729758
0.711969
0.695347
0.682523
0.694898
1.05468
2.91285
7.47216
14.5845
0.794981
0.822454
0.836987
0.839228
0.834194
0.823344
0.803654
0.785305
0.765808
0.743945
0.722414
0.703521
0.686545
0.67271
0.673927
0.794885
2.19847
7.28763
18.5425
0.908029
0.936088
0.954685
0.965909
0.963206
0.915649
0.831822
0.793859
0.7696
0.740575
0.716117
0.695133
0.67789
0.663919
0.662906
0.761589
1.65541
7.29473
21.7602
0.873651
0.913654
0.951788
0.987656
1.01543
1.02742
1.02907
1.02254
0.984475
0.868184
0.716363
0.686312
0.667125
0.654393
0.654274
0.750958
1.47848
8.85467
25.3049
0.89937
0.939313
0.975127
1.00551
1.02924
1.04617
1.06303
1.08264
1.07277
1.0002
0.843126
0.67247
0.657743
0.645421
0.647307
0.748417
1.59374
13.0091
30.5657
0.943079
0.986845
1.02284
1.04905
1.06545
1.07466
1.08312
1.09418
1.09406
1.05779
0.940337
0.685603
0.650561
0.637469
0.641802
0.758351
1.91942
19.8399
37.8382
0.986403
1.03899
1.08033
1.10774
1.12125
1.12467
1.12561
1.13026
1.13176
1.10292
0.999364
0.734715
0.646517
0.63118
0.63837
0.774647
2.34471
28.9842
45.1318
1.00999
1.07494
1.12616
1.16035
1.17721
1.18071
1.17894
1.1795
1.17845
1.14817
1.04505
0.779022
0.640682
0.625702
0.63858
0.812259
2.94253
48.3885
50.617
1.01068
1.08846
1.1517
1.19664
1.22245
1.23246
1.23404
1.2342
1.22877
1.18788
1.07317
0.797139
0.634769
0.623338
0.654189
1.00344
6.80338
82.2732
54.3716
0.994936
1.08431
1.15983
1.21769
1.25661
1.27865
1.28902
1.29171
1.27881
1.21711
1.08119
0.789486
0.632341
0.624678
0.686102
1.34582
16.0696
125.153
62.4866
0.971747
1.0709
1.15791
1.2297
1.28488
1.32352
1.34672
1.3526
1.32562
1.23256
1.06517
0.708665
0.621342
0.624985
0.739597
1.98703
30.0894
172.049
80.6687
0.948321
1.05546
1.15285
1.23927
1.31383
1.37334
1.41177
1.41791
1.36586
1.23128
1.02075
0.660932
0.607368
0.619226
0.793861
3.37872
69.8801
195.278
100.097
0.929229
1.04285
1.14971
1.25193
1.34993
1.43506
1.48898
1.4871
1.39251
1.20102
0.923553
0.611605
0.592005
0.611725
0.823734
3.35778
122.438
198.042
111.74
0.91701
1.03605
1.15192
1.27198
1.39921
1.5159
1.58242
1.55594
1.39866
1.14437
0.691723
0.596787
0.588973
0.626436
0.948448
5.09864
160.198
188.071
109.721
0.912847
1.03671
1.16158
1.30224
1.46657
1.62339
1.69792
1.62734
1.40595
1.11813
0.637089
0.594251
0.59816
0.689897
1.37757
11.4121
174.598
164.227
103.551
0.917027
1.04551
1.17952
1.34343
1.55387
1.76396
1.84386
1.70342
1.42189
1.13211
0.713792
0.643428
0.653521
0.923293
2.83534
21.3504
165.697
137.745
96.0254
0.929256
1.06249
1.20539
1.39317
1.65641
1.93622
2.02667
1.778
1.41693
1.11422
0.933345
0.79268
0.77925
2.34853
10.78
41.6535
144.906
113.91
87.1217
0.94889
1.08728
1.23792
1.44595
1.75848
2.11405
2.22106
1.82512
1.23272
0.836623
0.897602
1.18069
3.05846
10.4702
24.1043
59.2758
125.033
93.9333
76.727
0.975083
1.11936
1.27573
1.49506
1.83608
2.24165
2.31299
1.72641
0.961008
0.64337
0.775558
1.16147
4.61819
17.661
36.1836
67.0936
107.709
77.6245
65.4568
1.0069
1.1584
1.31852
1.53814
1.8784
2.28956
2.27066
1.44046
0.644873
0.589712
0.647844
0.824865
4.595
21.1147
45.627
69.8001
92.2653
63.6307
54.5225
1.04329
1.20425
1.36745
1.57921
1.89744
2.28668
2.25471
0.929973
0.57435
0.562478
0.584066
0.671291
1.64684
21.0597
49.886
68.5708
78.95
51.618
44.7117
1.08299
1.25675
1.42435
1.6241
1.90777
2.26099
2.38298
0.938312
0.577842
0.555662
0.559761
0.611259
0.979322
15.1816
47.8366
64.683
67.1271
41.5438
36.3032
1.12429
1.31534
1.49087
1.67787
1.91969
2.21647
2.43249
1.50129
0.602495
0.564544
0.556319
0.585698
0.826257
8.7268
43.8482
58.6568
56.3723
33.2658
29.3266
1.16495
1.37864
1.5682
1.74647
1.94683
2.17264
2.37364
2.07012
0.715414
0.580495
0.565019
0.583136
0.78564
4.71256
38.3184
52.5534
46.8552
26.4752
23.6985
1.20206
1.44412
1.65627
1.83506
1.99919
2.14774
2.24027
2.11878
0.866454
0.601977
0.577194
0.587822
0.740845
2.19113
32.4141
46.1536
38.6858
20.954
19.2224
1.23221
1.50784
1.75291
1.94686
2.08833
2.17409
2.11915
1.99461
1.32331
0.666177
0.598486
0.600478
0.744636
1.61159
19.2239
39.2807
31.5084
16.5421
15.6708
1.25183
1.56441
1.85332
2.08197
2.22758
2.28162
2.15846
1.96784
1.68973
0.745027
0.612128
0.614451
0.776222
1.76059
11.6329
33.3024
24.9704
12.9987
12.8288
1.25487
1.60674
1.95016
2.23591
2.42082
2.48282
2.3869
2.10647
1.80873
0.913713
0.654426
0.647673
0.853579
2.13712
10.3834
27.7564
19.1134
10.2699
10.5221
1.23713
1.62724
2.03191
2.39507
2.65666
2.77272
2.72106
2.46244
2.0607
1.49051
0.765101
0.707704
1.00689
3.4293
12.1305
21.8677
14.4204
8.24454
8.61792
1.19547
1.61824
2.08446
2.53826
2.91008
3.13331
3.16196
2.97383
2.62049
2.2517
1.79379
0.904064
1.82316
5.67004
13.8376
16.6226
10.9246
6.78876
7.02215
1.12845
1.57377
2.09381
2.6399
3.14362
3.52726
3.72077
3.68495
3.45909
3.18119
3.17272
3.91488
5.64164
8.78275
12.5364
12.7291
8.42714
5.76132
5.67461
1.03625
1.49073
2.04969
2.67589
3.3114
3.88335
4.31186
4.52861
4.51913
4.40264
4.51549
5.26615
6.8166
9.02515
10.7728
10.0108
6.67258
5.03458
4.54202
0.919626
1.36832
1.94751
2.63122
3.37405
4.11849
4.79642
5.3273
5.64943
5.80962
5.97317
6.44647
7.46057
8.78465
9.44321
8.13575
5.45678
4.50469
3.60805
0.777734
1.20395
1.78474
2.50341
3.31931
4.18334
5.04922
5.8564
6.51214
6.96235
7.23789
7.55879
8.08595
8.63525
8.46806
6.83791
4.6144
4.1
2.86283
0.607005
0.986019
1.54593
2.28646
3.16389
4.10789
5.06127
5.98881
6.83458
7.46688
7.89056
8.17013
8.35899
8.32204
7.60193
5.874
3.98874
3.74716
2.2907
0.406757
0.690216
1.17214
1.90302
2.86821
3.95441
4.98305
5.78404
6.59039
7.2519
7.75484
8.0577
8.11035
7.78814
6.841
5.19201
3.56944
3.4952
1.87343
0.200749
0.311478
0.545302
1.02326
1.90271
3.23658
4.78151
5.351
5.93501
6.47416
6.90925
7.15703
7.134
6.73039
5.8065
4.38727
3.06704
3.13117
1.56166
)
;

boundaryField
{
    leftWall
    {
        lowReCorrection 0;
        blending        stepwise;
        n               2;
        type            epsilonWallFunction;
        value           nonuniform List<scalar> 
50
(
0.0385059
0.0472607
0.057852
0.0675723
0.078966
0.0889742
0.0965541
0.101782
0.105108
0.104144
0.100479
0.0986672
0.179261
0.50062
0.595057
0.546429
0.531457
0.535558
0.546628
0.557543
0.564043
0.564155
0.557561
0.544934
0.527495
0.506693
0.484025
0.460918
0.43867
0.418422
0.401146
0.387672
0.378714
0.37492
0.37692
0.385371
0.400977
0.424494
0.456701
0.498336
0.550039
0.612337
0.685774
0.771246
0.87061
0.986904
1.12471
1.2924
1.5071
1.80851
)
;
    }
    rightWall
    {
        lowReCorrection 0;
        blending        stepwise;
        n               2;
        type            epsilonWallFunction;
        value           nonuniform List<scalar> 
50
(
0.0308708
0.0448163
0.0707086
0.0986988
0.131238
0.17257
0.230293
0.318859
0.595125
1.24642
2.68934
5.49996
9.82173
14.5845
18.5425
21.7602
25.3049
30.5657
37.8382
45.1318
50.617
54.3716
62.4866
80.6687
100.097
111.74
109.721
103.551
96.0254
87.1217
76.727
65.4568
54.5225
44.7117
36.3032
29.3266
23.6985
19.2224
15.6708
12.8288
10.5221
8.61792
7.02215
5.67461
4.54202
3.60805
2.86283
2.2907
1.87343
1.56166
)
;
    }
    lowerWall
    {
        lowReCorrection 0;
        blending        stepwise;
        n               2;
        type            epsilonWallFunction;
        value           nonuniform List<scalar> 
62
(
0.0385059
0.124164
0.243562
0.35589
0.458313
0.547511
0.629739
0.707626
0.782263
0.853395
0.919668
0.978856
1.02803
1.06349
1.08033
1.07193
1.04823
0.997554
0.917483
0.812672
0.690641
0.544681
0.373728
0.373728
0.45463
0.764243
1.12477
1.44752
1.77407
2.14352
2.6565
3.86934
3.30966
2.75197
2.26739
0.066368
0.120885
0.201126
0.272515
0.334517
0.408019
0.725801
1.77919
0.066368
0.239773
0.380489
0.504233
0.623084
0.747885
0.852833
0.918451
0.926735
0.904722
0.825975
0.704146
0.563274
0.425727
0.323005
0.240788
0.169428
0.102472
0.0308708
)
;
    }
    atmosphere
    {
        type            inletOutlet;
        inletValue      uniform 0.1;
        value           nonuniform List<scalar> 
46
(
0.1
0.1
0.1
0.1
0.1
0.1
0.1
0.1
0.1
0.1
0.1
0.1
0.1
0.1
0.1
0.1
0.1
0.1
0.1
0.1
0.1
0.1
0.1
0.1
0.1
0.1
0.1
0.1
0.1
0.1
0.1
0.1
0.1
0.1
5.351
5.93501
6.47416
6.90925
7.15703
7.134
6.73039
5.8065
4.38727
3.06704
3.13117
1.56166
)
;
    }
    defaultFaces
    {
        type            empty;
    }
}


// ************************************************************************* //
