/*--------------------------------*- C++ -*----------------------------------*\
| =========                 |                                                 |
| \\      /  F ield         | OpenFOAM: The Open Source CFD Toolbox           |
|  \\    /   O peration     | Version:  v2012                                 |
|   \\  /    A nd           | Website:  www.openfoam.com                      |
|    \\/     M anipulation  |                                                 |
\*---------------------------------------------------------------------------*/
FoamFile
{
    version     2.0;
    format      ascii;
    class       volScalarField;
    location    "0.4";
    object      nut;
}
// * * * * * * * * * * * * * * * * * * * * * * * * * * * * * * * * * * * * * //

dimensions      [0 2 -1 0 0 0 0];


internalField   nonuniform List<scalar> 
2268
(
6.67166e-05
6.5482e-05
8.19208e-05
9.29148e-05
0.000101071
0.000107195
0.000112254
0.000116637
0.000120533
0.000124013
0.000127079
0.00012969
0.000131774
0.000133228
0.000133887
0.000133515
0.000132502
0.00013031
0.000126703
0.000121649
0.000115169
0.000106399
9.39585e-05
0.000129083
0.000437803
0.000632458
0.000767227
0.000863485
0.000937277
0.00099566
0.00104328
0.0010827
0.0011151
0.00114086
0.00116001
0.00117234
0.00117755
0.00117482
0.00115654
0.00110307
0.0010234
0.000927231
0.000830607
0.000746722
0.00068358
0.000272067
0.000138033
0.000689387
0.00105262
0.00132879
0.00154961
0.00173053
0.00188142
0.00200879
0.00211634
0.00220589
0.00227816
0.00233328
0.00237105
0.00239079
0.00239044
0.00236094
0.00227266
0.00212273
0.00191178
0.00166064
0.00140813
0.00116568
0.00032336
0.000145056
0.000821658
0.00130642
0.00170106
0.00203472
0.00232086
0.00256831
0.00278281
0.00296759
0.00312427
0.0032535
0.00335548
0.00342998
0.00347599
0.00349024
0.00346214
0.00336082
0.00317234
0.002884
0.00250629
0.00207894
0.00158863
0.000367525
0.00015267
0.000885014
0.00145462
0.00194146
0.00237133
0.00275303
0.0030918
0.003391
0.00365256
0.00387748
0.00406628
0.00421922
0.0043361
0.0044156
0.00445339
0.00443718
0.00433629
0.00412925
0.00379302
0.00332408
0.00274018
0.00197723
0.000399814
0.000158833
0.000915752
0.00153652
0.00209235
0.00260278
0.00306937
0.00349177
0.00386988
0.00420388
0.00449407
0.00474092
0.00494485
0.00510583
0.00522227
0.00528888
0.00529186
0.00520059
0.00498857
0.00462468
0.00409075
0.00337121
0.00233783
0.000427807
0.00016319
0.000925552
0.00157366
0.0021808
0.00275905
0.00330081
0.00379875
0.00424873
0.00464906
0.00499952
0.00530067
0.00555328
0.00575755
0.00591173
0.00600967
0.00603625
0.00596104
0.00575408
0.00537694
0.00479676
0.00396277
0.00268296
0.000455604
0.00016602
0.000915608
0.0015758
0.0022232
0.00286047
0.00346941
0.00403509
0.00454939
0.0050091
0.00541374
0.00576422
0.00606181
0.00630702
0.00649801
0.00662784
0.00668017
0.0066256
0.00643189
0.00605321
0.00544319
0.00452296
0.00304964
0.000489479
5.31931e-05
8.1758e-05
9.56864e-05
0.000105363
0.00011341
0.000121014
0.000127194
0.00013149
0.000132765
0.000132176
0.000128701
0.000122284
0.000113504
0.000103061
9.34262e-05
8.42711e-05
7.45785e-05
6.27663e-05
6.54776e-05
0.000202974
0.000472541
0.000615594
0.000775866
0.000937462
0.00106259
0.001193
0.00131474
0.00140191
0.00141833
0.00137989
0.00129075
0.00115801
0.000992677
0.000792482
0.000627239
0.000498095
0.000374565
0.000148592
0.000240259
0.000853253
0.00115895
0.00144171
0.00169107
0.00189814
0.00210935
0.00231701
0.0024913
0.0025777
0.00258432
0.00250984
0.00235119
0.00211062
0.00178423
0.00143452
0.00109789
0.000754763
0.000174087
0.000265474
0.00113482
0.00153702
0.00184868
0.0021165
0.00234511
0.00257415
0.00281426
0.00303679
0.00317832
0.00324932
0.0032472
0.00316214
0.00298488
0.00268895
0.0022785
0.00176812
0.00115615
0.000196055
0.000283864
0.00130514
0.00173903
0.00204038
0.00232014
0.00256434
0.00279121
0.00303324
0.00326756
0.00344067
0.00356695
0.00364603
0.00366608
0.00361184
0.00343428
0.00307689
0.00247904
0.00159279
0.000217778
0.000304106
0.00136587
0.00181002
0.00212985
0.00244221
0.00270153
0.00292264
0.00314435
0.00335517
0.00353838
0.00370294
0.00385326
0.00397903
0.00406161
0.00403607
0.00380053
0.00320727
0.00208513
0.000241745
0.000377531
0.00121664
0.00179697
0.0022191
0.00251458
0.00276862
0.00299547
0.00319401
0.00337498
0.00355547
0.00374639
0.00395455
0.00417748
0.00439468
0.00452945
0.00444853
0.00393003
0.00264294
0.000270532
0.000491915
0.000881724
0.00169993
0.0019682
0.00216354
0.00257109
0.00291249
0.00312481
0.00330334
0.00350033
0.00372282
0.00398177
0.00429454
0.00464381
0.0049415
0.00503192
0.00463324
0.00325814
0.000307339
0.00016765
0.000876436
0.00153837
0.00223052
0.0029415
0.00363753
0.00429259
0.00489284
0.00543301
0.00591251
0.00633296
0.00669663
0.00700497
0.00725661
0.00744428
0.00755037
0.00754134
0.0073811
0.007018
0.00639081
0.00540946
0.00390318
0.00146604
0.000166755
0.000757968
0.00140375
0.00215653
0.00296026
0.00375192
0.00449492
0.00517452
0.00578715
0.00633418
0.00681913
0.00724593
0.00761734
0.00793267
0.00818457
0.00835458
0.00840728
0.0082982
0.00797864
0.00738662
0.00644623
0.00506544
0.00317542
0.000164499
0.000604916
0.00124182
0.00206835
0.00295373
0.00381138
0.00460586
0.00532861
0.00598014
0.00656424
0.00708619
0.00755132
0.00796334
0.00832202
0.00862031
0.00884124
0.00895435
0.00891398
0.00868021
0.00820114
0.00742933
0.00634388
0.00500503
0.000163732
0.000443982
0.0011225
0.00204628
0.00297848
0.00385852
0.00466625
0.00539986
0.00606228
0.00665835
0.00719455
0.00767749
0.00811177
0.00849693
0.00882489
0.00907801
0.00922673
0.00923499
0.00907313
0.00871899
0.00816232
0.00742468
0.00656695
0.000210153
0.000571277
0.00127419
0.00214881
0.00305474
0.00392086
0.00471957
0.00544615
0.00610252
0.0066932
0.00722442
0.00770257
0.00813212
0.00851275
0.00883674
0.00908656
0.00923153
0.0092492
0.00911398
0.00882069
0.00842431
0.00798349
0.00748282
0.000288845
0.00149213
0.00262005
0.00355191
0.00444159
0.00530258
0.0061113
0.0068528
0.00752425
0.00812914
0.0086733
0.00916194
0.00959689
0.00997302
0.0102716
0.010447
0.0103783
0.00955145
0.0091913
0.00885443
0.00841745
0.0080095
0.00760543
0.000299198
0.00182441
0.0032157
0.0042711
0.00524718
0.00616724
0.00701379
0.00777711
0.00845945
0.00906921
0.00961635
0.0101095
0.0105534
0.0109463
0.0112745
0.0115044
0.011569
0.0114209
0.0112378
0.0109282
0.0101142
0.00848555
0.00774315
0.000290129
0.00189612
0.003438
0.00470552
0.00582683
0.0068332
0.0077276
0.00851449
0.00920499
0.00981392
0.0103563
0.0108449
0.0112884
0.0116897
0.0120427
0.0123296
0.01252
0.01259
0.0125508
0.0123963
0.012047
0.0115239
0.0110884
0.000288055
0.00184347
0.00354327
0.00500665
0.00626763
0.00735761
0.00829691
0.00910477
0.00980196
0.0104095
0.0109465
0.0114289
0.0118681
0.0122693
0.0126308
0.0129419
0.0131835
0.0133345
0.0133876
0.0133504
0.0132174
0.0129866
0.0127001
0.000288847
0.00180919
0.0036292
0.00524571
0.00661768
0.00777305
0.00874552
0.00956696
0.0102667
0.010871
0.011402
0.0118773
0.0123092
0.012704
0.0130613
0.0133737
0.0136273
0.0138061
0.0139021
0.0139214
0.0138704
0.0137457
0.0135512
0.000290685
0.00180477
0.0037181
0.00544402
0.00689334
0.008092
0.00908378
0.00991039
0.010608
0.0112066
0.0117307
0.0121983
0.0126217
0.0130069
0.0133535
0.0136559
0.0139034
0.0140845
0.0141927
0.0142309
0.0142041
0.0141105
0.0139507
0.000292378
0.00182371
0.0038075
0.00560369
0.00709963
0.00832163
0.00932059
0.0101453
0.0108367
0.011428
0.0119445
0.0124044
0.0128192
0.0131939
0.0135278
0.0138155
0.0140486
0.0142184
0.0143199
0.0143539
0.0143233
0.0142291
0.0140757
0.000293253
0.00185223
0.00388639
0.00572215
0.00724062
0.00847046
0.00946754
0.0102853
0.0109683
0.0115513
0.0120603
0.0125132
0.0129204
0.0132855
0.013607
0.0138791
0.0140945
0.0142461
0.0143299
0.0143462
0.0142975
0.0141877
0.0140252
0.00029303
0.0018793
0.00394567
0.00579876
0.00732266
0.00854949
0.00953864
0.0103466
0.01102
0.0115947
0.0120971
0.0125444
0.0129457
0.0133035
0.0136146
0.0138727
0.0140704
0.0142014
0.0142625
0.0142543
0.0141807
0.0140481
0.0138684
0.000291679
0.00189821
0.00398087
0.00583598
0.00735406
0.00857096
0.0095486
0.0103453
0.0110089
0.0115761
0.012073
0.0125164
0.0129142
0.0132675
0.0135715
0.0138188
0.0140012
0.0141127
0.0141503
0.0141158
0.0140149
0.0138571
0.013657
0.000289305
0.00190557
0.00399146
0.00583844
0.00734379
0.00854681
0.00951117
0.0102962
0.0109505
0.0115108
0.0120034
0.0124445
0.0128413
0.0131931
0.0134938
0.0137343
0.0139053
0.0140001
0.0140163
0.0139567
0.0138295
0.0136474
0.0134279
0.00028609
0.00190083
0.00397955
0.00581167
0.00730032
0.00848761
0.00943822
0.0102119
0.0108573
0.0114114
0.0119005
0.0123406
0.012738
0.0130911
0.0133921
0.0136299
0.0137938
0.0138759
0.0138739
0.0137922
0.0136417
0.0134392
0.0132049
0.000282249
0.00188521
0.00394852
0.0057612
0.00723104
0.00840213
0.00933942
0.0101024
0.0107395
0.0112877
0.0117736
0.012213
0.0126123
0.0129686
0.0132727
0.0135115
0.0136723
0.0137458
0.0137296
0.0136298
0.0134611
0.0132446
0.0130034
0.000278016
0.00186082
0.00390216
0.00569212
0.00714216
0.00829745
0.0092224
0.0099756
0.0106049
0.0111475
0.0116298
0.0120684
0.0124695
0.01283
0.0131392
0.0133821
0.0135434
0.0136124
0.0135865
0.013474
0.0132939
0.013072
0.0128345
0.000273635
0.00183008
0.00384416
0.00560891
0.00703887
0.00817929
0.00909318
0.00983768
0.0104598
0.0109964
0.0114747
0.0119115
0.0123139
0.0126787
0.0129942
0.0132434
0.0134088
0.0134777
0.0134475
0.0133288
0.0131456
0.0129289
0.0127069
0.000269354
0.00179534
0.00377792
0.00551565
0.00692571
0.00805245
0.00895665
0.00969348
0.0103088
0.0108393
0.0113125
0.0117463
0.0121488
0.0125173
0.0128397
0.0130974
0.0132704
0.0133442
0.0133158
0.0131989
0.0130222
0.0128217
0.0126271
0.000265417
0.00175876
0.00370663
0.00541613
0.00680686
0.00792121
0.00881697
0.00954696
0.0101557
0.0106796
0.0111466
0.011576
0.0119771
0.0123483
0.0126779
0.012946
0.0131306
0.0132149
0.0131958
0.0130893
0.0129289
0.012755
0.0125978
0.000262063
0.00172231
0.00363333
0.00531415
0.00668644
0.00778962
0.0086779
0.00940147
0.0100035
0.0105199
0.0109795
0.0114027
0.0118008
0.0121738
0.0125107
0.0127913
0.0129917
0.0130929
0.013091
0.0130038
0.0128688
0.0127301
0.0126175
0.00025952
0.00168772
0.00356104
0.00521367
0.00656876
0.00766181
0.00854303
0.00925996
0.00985447
0.0103623
0.0108129
0.0112283
0.0116216
0.0119951
0.0123396
0.0126348
0.0128555
0.0129802
0.0130035
0.012944
0.0128421
0.0127446
0.0126807
0.000257995
0.00165651
0.00349283
0.00511894
0.00645847
0.00754213
0.008416
0.00912526
0.00971077
0.0102083
0.010648
0.0110535
0.0114402
0.0118131
0.012165
0.0124767
0.012722
0.0128769
0.0129331
0.0129087
0.0128459
0.0127931
0.0127793
0.000257668
0.00162991
0.0034318
0.00503452
0.00636058
0.00743519
0.0083006
0.00900015
0.00957424
0.010059
0.0104854
0.0108788
0.0112569
0.0116276
0.0119864
0.0123161
0.0125898
0.0127807
0.012877
0.0128942
0.0128747
0.0128682
0.0129038
0.000258692
0.00160887
0.00338111
0.00496521
0.00628035
0.00734583
0.00820071
0.00888746
0.00944675
0.00991543
0.0103257
0.0107044
0.0110716
0.011438
0.0118027
0.0121507
0.0124555
0.0126875
0.0128301
0.0128944
0.0129213
0.0129613
0.0130444
0.000261174
0.00159411
0.00334388
0.00491588
0.00622312
0.00727888
0.00812021
0.00879
0.00933016
0.00977888
0.0101696
0.0105306
0.010884
0.0112436
0.011612
0.0119775
0.0123145
0.0125911
0.0127851
0.0129015
0.0129774
0.0130635
0.0131916
0.000265178
0.00158623
0.0033232
0.00489122
0.0061939
0.00723883
0.00806266
0.00871037
0.00922631
0.00965057
0.010018
0.010358
0.0106944
0.0110439
0.0114127
0.011793
0.0121613
0.0124843
0.0127337
0.0129065
0.013034
0.0131658
0.0133364
0.00027071
0.00158602
0.00332217
0.00489557
0.00619712
0.00722944
0.00803096
0.00865073
0.00913685
0.00953187
0.00987195
0.0101875
0.0105036
0.010839
0.0112037
0.0115942
0.0119906
0.0123592
0.0126662
0.0128991
0.0130809
0.0132587
0.0134699
0.000277717
0.00159469
0.00334391
0.00493278
0.00623628
0.00725339
0.00802698
0.00861249
0.00906305
0.00942413
0.00973309
0.0100208
0.0103129
0.0106298
0.0109848
0.0113791
0.0117975
0.0122079
0.0125723
0.012868
0.0131071
0.013332
0.0135828
0.000286088
0.00161403
0.00339157
0.00500609
0.00631382
0.00731201
0.0080513
0.00859602
0.00900556
0.00932848
0.00960303
0.00985988
0.0101245
0.0104184
0.0107572
0.011147
0.0115786
0.0120236
0.0124417
0.0128008
0.0131
0.0133738
0.0136643
0.000295667
0.00164628
0.00346827
0.00511829
0.00643108
0.00740514
0.00810298
0.00860052
0.00896426
0.00924572
0.00948343
0.00970714
0.00994143
0.0102077
0.0105236
0.0108996
0.0113328
0.011801
0.0122651
0.0126848
0.013045
0.0133694
0.0137014
0.000306277
0.00169367
0.00357709
0.00527191
0.00658843
0.00753107
0.00817954
0.00862389
0.00893818
0.00917616
0.00937579
0.00956506
0.00976684
0.0100017
0.0102881
0.0106402
0.0110616
0.0115381
0.0120348
0.0125076
0.0129279
0.0133058
0.0136805
0.000317766
0.00175814
0.00372149
0.0054698
0.00678548
0.00768665
0.00827694
0.00866291
0.00892556
0.00911965
0.00928135
0.00943608
0.00960427
0.00980476
0.010056
0.0103745
0.0107698
0.0112364
0.0117472
0.012259
0.0127338
0.0131643
0.0135806
0.000330064
0.00184198
0.00390661
0.00571611
0.00702123
0.00786717
0.00838979
0.00871331
0.00892397
0.00907551
0.00920096
0.00932237
0.00945712
0.00962172
0.00983347
0.0101099
0.0104651
0.0109014
0.0114027
0.0119322
0.0124465
0.0129219
0.0133745
0.000343228
0.00194801
0.00414236
0.00601712
0.0072939
0.00806628
0.0085114
0.00877018
0.00893059
0.0090427
0.00913505
0.00922563
0.00932845
0.00945717
0.00962705
0.00985516
0.0101577
0.0105441
0.0110094
0.0115273
0.0120552
0.012557
0.0130313
0.000357441
0.00208221
0.00445033
0.0063827
0.00760021
0.00827557
0.00863411
0.00882834
0.00894248
0.00901995
0.00908357
0.009147
0.00922071
0.00931529
0.00944326
0.00961975
0.00986099
0.010181
0.0105841
0.011056
0.0115614
0.0120576
0.0125252
0.00037296
0.0022728
0.00486649
0.00682761
0.00793341
0.00848403
0.0087497
0.00888289
0.00895696
0.00900586
0.00904604
0.00908686
0.00913546
0.00919936
0.00928794
0.00941325
0.00958974
0.00983246
0.0101516
0.0105438
0.0109848
0.0114323
0.0118502
0.000390302
0.00256871
0.00545286
0.00736221
0.0082795
0.00867773
0.00885018
0.00892989
0.00897191
0.00899904
0.00902147
0.00904472
0.00907309
0.00911127
0.00916546
0.00924407
0.00935808
0.00952041
0.00974279
0.0100293
0.0103671
0.0107201
0.0110401
0.000410554
0.00309977
0.00632557
0.00798294
0.00861125
0.00884084
0.00892921
0.00896698
0.00898603
0.00899818
0.00900834
0.0090191
0.00903252
0.00905099
0.00907781
0.0091177
0.00917725
0.00926493
0.00938994
0.00955863
0.00976716
0.00999136
0.0101807
0.000436144
0.00440521
0.007687
0.0086362
0.00888526
0.00895873
0.00898382
0.00899389
0.00899884
0.00900199
0.00900465
0.00900751
0.00901113
0.00901622
0.00902378
0.00903532
0.00905304
0.00908001
0.00911994
0.00917626
0.00924924
0.00932999
0.00939002
0.000559082
0.000530957
0.000499871
0.000469387
0.00219985
0.00185169
0.00167558
0.00159328
0.00428243
0.00384045
0.0035241
0.00329868
0.00605722
0.00568298
0.00535823
0.00507843
0.00713637
0.00685099
0.00657178
0.0063048
0.00735524
0.00712701
0.0068787
0.00666395
0.00743987
0.00721474
0.00697231
0.00672602
0.0108493
0.0106473
0.0104257
0.010172
0.0124934
0.0123093
0.012104
0.0118669
0.0133841
0.0132243
0.0130398
0.0128231
0.0138032
0.013655
0.0134804
0.0132733
0.0139347
0.013789
0.0136151
0.013407
0.0138803
0.01373
0.0135504
0.013335
0.0137129
0.0135538
0.0133646
0.0131388
0.0134879
0.0133183
0.0131186
0.012882
0.0132456
0.0130668
0.0128585
0.0126141
0.0130133
0.0128292
0.0126173
0.012371
0.0128091
0.0126258
0.0124173
0.012177
0.0126458
0.0124707
0.0122736
0.012048
0.012533
0.0123736
0.0121957
0.0119925
0.0124763
0.012339
0.0121868
0.0120121
0.0124767
0.0123665
0.0122444
0.0121022
0.0125303
0.0124501
0.0123605
0.0122525
0.0126292
0.0125802
0.0125237
0.01245
0.0127635
0.0127454
0.0127213
0.0126805
0.0129221
0.012934
0.0129407
0.0129307
0.0130944
0.0131349
0.0131706
0.0131895
0.0132707
0.0133384
0.0134014
0.0134473
0.013442
0.0135356
0.0136244
0.0136961
0.0135997
0.0137179
0.0138313
0.0139282
0.0137355
0.013877
0.0140136
0.0141354
0.0138397
0.0140029
0.0141617
0.0143075
0.0139016
0.0140852
0.0142664
0.0144376
0.013906
0.0141093
0.0143127
0.0145104
0.0138315
0.0140526
0.0142769
0.0145008
0.0136477
0.0138826
0.0141238
0.0143714
0.0133172
0.0135569
0.0138064
0.0140703
0.0128026
0.0130298
0.0132694
0.0135321
0.0120835
0.0122692
0.0124662
0.0126924
0.0111863
0.0112924
0.0113982
0.0115285
0.0102191
0.0102212
0.0101938
0.0101586
0.0093666
0.009314
0.00921026
0.00904955
0.000601152
0.00091176
0.00173073
0.00194288
0.00211886
0.00235765
0.00268661
0.00289583
0.00303818
0.00329898
0.00361842
0.0039435
0.00438329
0.0049433
0.00551448
0.00590406
0.00574086
0.00430397
0.000390984
0.00159507
0.00168344
0.0018109
0.00197303
0.00218292
0.00248086
0.00277726
0.00296113
0.00310986
0.00325678
0.00338551
0.00354041
0.00406507
0.00484841
0.00580223
0.00668279
0.00694976
0.00557107
0.000514253
0.00303418
0.00290182
0.00285863
0.0028603
0.00289937
0.00296315
0.00303193
0.00311043
0.0032145
0.00334301
0.00346397
0.00355475
0.00363773
0.00435468
0.00557713
0.00700793
0.00794657
0.00684447
0.000674964
0.00466497
0.00437933
0.00416641
0.00399842
0.00386
0.00374482
0.00365148
0.00358392
0.00354732
0.00354073
0.00356338
0.00361045
0.0036694
0.00374254
0.00491257
0.00656779
0.0083063
0.00789429
0.000856521
0.00587181
0.00548712
0.00517294
0.00490186
0.00465557
0.004433
0.00423801
0.0040709
0.00393156
0.0038243
0.00375617
0.00372854
0.00373201
0.00375208
0.00381502
0.00532443
0.00758094
0.00828432
0.00101999
0.00634176
0.00597893
0.00563671
0.00534142
0.0050568
0.00478684
0.00455374
0.00435755
0.00418546
0.00403568
0.00391723
0.00383675
0.00379443
0.0037841
0.0038145
0.00403183
0.00608413
0.00774931
0.00112952
0.00637436
0.00600406
0.00565536
0.00535596
0.00506888
0.00477411
0.00455821
0.00440887
0.00425409
0.00409573
0.00396469
0.00387237
0.00381226
0.00378333
0.00379149
0.00390976
0.00475734
0.00664091
0.00118892
0.00967928
0.00906568
0.00841666
0.00774885
0.00700023
0.00596235
0.00484036
0.00447586
0.00427819
0.00406205
0.00388079
0.00381408
0.00376788
0.00374194
0.00374941
0.00385865
0.00392116
0.00572229
0.00121581
0.0113976
0.0108079
0.010186
0.00955236
0.00889949
0.00820815
0.00753652
0.00688432
0.00609731
0.00498084
0.00388317
0.00372331
0.00368519
0.0036718
0.00368674
0.00377852
0.00358795
0.00541728
0.00125031
0.0123915
0.0118495
0.0112751
0.0106847
0.0100797
0.00945395
0.00881023
0.00812584
0.00729796
0.00621616
0.00483061
0.00365812
0.00360053
0.00359494
0.00361548
0.00368159
0.0034619
0.00552031
0.00131275
0.0128604
0.0123432
0.0117928
0.0112226
0.0106386
0.0100399
0.00942005
0.00875018
0.00795341
0.00693078
0.00556866
0.00370718
0.00352454
0.00352178
0.00354385
0.00357774
0.00328419
0.00575666
0.00139939
0.0129923
0.0124734
0.0119206
0.011348
0.0107668
0.0101835
0.0095944
0.00897024
0.00823836
0.00728661
0.00598359
0.00400342
0.0034562
0.00345486
0.00347538
0.00346852
0.00317146
0.00603443
0.00150734
0.0129086
0.0123759
0.0118077
0.0112205
0.0106311
0.0100537
0.00948996
0.00891162
0.00824272
0.0073588
0.00612413
0.00424696
0.003392
0.00339343
0.00340555
0.00331775
0.00287066
0.00703722
0.0015831
0.0126967
0.0121459
0.011558
0.0109511
0.0103476
0.0097695
0.00922375
0.00868154
0.00805933
0.00722451
0.00604473
0.00425512
0.0033381
0.00333529
0.00331362
0.0029529
0.00210306
0.00897954
0.00163061
0.0124254
0.0118576
0.0112493
0.0106193
0.00999661
0.00941179
0.00887648
0.00835873
0.00776395
0.00695826
0.0058136
0.00408751
0.00327443
0.00327374
0.00318752
0.00255551
0.00230236
0.0112325
0.00171476
0.0121495
0.0115701
0.0109423
0.010285
0.00963554
0.00903582
0.00850175
0.00799397
0.00740661
0.00659808
0.00545005
0.00355232
0.00321649
0.00320503
0.00301141
0.00215773
0.00346527
0.0133575
0.00188822
0.0119094
0.0113272
0.0106815
0.00999051
0.00930356
0.00867816
0.00813368
0.00761738
0.00700993
0.00616394
0.00498385
0.00331114
0.0031505
0.00313473
0.00282869
0.00177063
0.00658962
0.0143109
0.00222105
0.0117322
0.0111574
0.010495
0.00976239
0.00902492
0.00836145
0.00779314
0.00724581
0.00658251
0.0056534
0.00437036
0.0031204
0.00309024
0.0030734
0.00274852
0.00181569
0.0103009
0.014561
0.0024946
0.0116342
0.0110765
0.0103984
0.009616
0.0088149
0.00810058
0.00749359
0.00689021
0.00613265
0.00507865
0.00331197
0.00304907
0.00305434
0.00301503
0.00260801
0.00173433
0.012995
0.0143831
0.00260092
0.0116217
0.0110896
0.0103981
0.00956114
0.00868611
0.0079086
0.00724601
0.00656144
0.00570892
0.00461232
0.0031096
0.00304067
0.00304249
0.00294475
0.0023863
0.0019953
0.0146469
0.0138799
0.00255877
0.011693
0.0111941
0.0104946
0.0096052
0.00865177
0.00779939
0.00705863
0.00626255
0.00532837
0.00427243
0.00317946
0.00309524
0.0030583
0.00287643
0.00258016
0.00344504
0.0152795
0.0131969
0.00247886
0.0118399
0.0113808
0.0106837
0.00975258
0.00872308
0.00778465
0.00693375
0.00597658
0.00493337
0.00397211
0.00347712
0.0031786
0.00299104
0.00285638
0.00491056
0.00702934
0.0148494
0.0123254
0.00239823
0.0120491
0.0116357
0.0109552
0.010001
0.00890325
0.00786846
0.0068681
0.00566319
0.00431199
0.00320907
0.00313734
0.00345512
0.00428249
0.00618596
0.00844996
0.0102022
0.014399
0.0113643
0.00231744
0.0123046
0.0119412
0.0112925
0.0103398
0.00918749
0.00802975
0.00680852
0.00521455
0.00347361
0.00278686
0.00292286
0.00322658
0.00496744
0.00882623
0.0111729
0.0125428
0.0141673
0.0104499
0.00222104
0.0125907
0.0122788
0.0116745
0.0107482
0.00955848
0.00825884
0.00675106
0.00451498
0.00277928
0.00271886
0.00280389
0.00290365
0.0041559
0.00964283
0.0128484
0.014266
0.0140348
0.00964507
0.00210096
0.012893
0.0126314
0.0120789
0.0112001
0.0100004
0.00858625
0.00688911
0.00329259
0.00269708
0.00268826
0.00273059
0.00277908
0.00258432
0.00914348
0.0138642
0.0151375
0.013884
0.0089727
0.00197316
0.0132004
0.0129863
0.0124876
0.0116701
0.0104974
0.00902736
0.0073252
0.003358
0.00271945
0.00269374
0.00271113
0.0027447
0.00258119
0.00675517
0.0136305
0.0153915
0.0136085
0.00841489
0.0018448
0.0135046
0.0133357
0.0128891
0.0121384
0.0110271
0.00954104
0.00791142
0.00500704
0.00276925
0.00272913
0.00272862
0.00274932
0.00262697
0.00412634
0.0127857
0.0151764
0.0131991
0.00792936
0.00171967
0.0137993
0.0136761
0.0132794
0.0125909
0.0115525
0.010055
0.00839867
0.00656969
0.00299655
0.00278829
0.00277339
0.00278452
0.0026903
0.00273942
0.0114929
0.0146064
0.0126727
0.00747306
0.00160026
0.0140789
0.0140068
0.0136614
0.013027
0.0120507
0.0105862
0.00880376
0.00718495
0.00340351
0.00288344
0.0028416
0.00284015
0.00278532
0.0023332
0.00993221
0.013671
0.0120116
0.00700341
0.00148823
0.0143365
0.0143262
0.0140419
0.0134615
0.0125405
0.0111519
0.00913265
0.00740292
0.00484841
0.00306642
0.0029388
0.00291483
0.00290347
0.00277018
0.00622769
0.0123024
0.0111473
0.00648555
0.00138388
0.0145631
0.0146289
0.0144236
0.0139108
0.0130504
0.0117392
0.00971699
0.00779951
0.00604201
0.0032589
0.00301848
0.00298179
0.00296875
0.00294236
0.00403774
0.0111173
0.0101008
0.00587598
0.00128581
0.0147528
0.0149122
0.014811
0.014392
0.013608
0.012409
0.0106665
0.00843951
0.006493
0.00370124
0.00312537
0.00304003
0.00299131
0.00298329
0.00366941
0.0101751
0.00893298
0.00521586
0.00119265
0.014889
0.0151591
0.0151904
0.0149032
0.0142351
0.0131522
0.0116261
0.00957695
0.00739635
0.00516896
0.00325021
0.00305636
0.00296318
0.00324217
0.00445941
0.00907451
0.00778701
0.00456029
0.00110296
0.0149441
0.0153398
0.0155304
0.0154143
0.0149102
0.0139731
0.0125884
0.0107886
0.00866516
0.00658984
0.00442859
0.00293036
0.00270762
0.00377085
0.00576433
0.00803376
0.00676774
0.00396719
0.00101556
0.014877
0.0154095
0.0157827
0.0158747
0.0155869
0.0148589
0.0136727
0.0120495
0.0101091
0.00806095
0.00619593
0.00490506
0.00471096
0.00535289
0.00631496
0.00721525
0.0059185
0.00347413
0.000929851
0.0146282
0.015301
0.0158755
0.01621
0.0161885
0.0157334
0.0148088
0.0134285
0.0116795
0.00973513
0.00791442
0.00661145
0.00609792
0.00622932
0.00652995
0.00663679
0.00524852
0.00309387
0.000846154
0.0141167
0.0149141
0.0156976
0.0163064
0.0166037
0.0164874
0.0158957
0.014821
0.0133282
0.0115827
0.00979019
0.00828016
0.00736915
0.00699919
0.0067777
0.00628813
0.00476161
0.00282175
0.000766009
0.0132464
0.0141084
0.0150752
0.0159753
0.0166503
0.0169602
0.016791
0.0160841
0.0148844
0.0133571
0.0116284
0.010005
0.00875145
0.00789073
0.00714597
0.00615509
0.0044545
0.0026494
0.000692048
0.0119417
0.0127143
0.0137519
0.0148992
0.0159914
0.0168512
0.0172814
0.0170779
0.016164
0.0147859
0.0131706
0.0115354
0.0100585
0.00879397
0.00758905
0.00619031
0.00430111
0.00256052
0.000627149
0.0102568
0.0106089
0.0113931
0.0125538
0.0139717
0.0154751
0.0168299
0.0176317
0.0170193
0.0157365
0.0142192
0.0126366
0.0110811
0.00958632
0.00807466
0.00638336
0.00431687
0.00257292
0.000574247
0.00875658
0.00818421
0.00781446
0.00799866
0.00898589
0.0108392
0.0135756
0.0174816
0.0173468
0.0161446
0.0146732
0.0131245
0.0115522
0.00996411
0.00830526
0.00645925
0.00431074
0.00258426
0.000531828
)
;

boundaryField
{
    leftWall
    {
        type            nutkWallFunction;
        blending        stepwise;
        Cmu             0.09;
        kappa           0.41;
        E               9.8;
        value           nonuniform List<scalar> 
50
(
1.23238e-05
1.50948e-05
1.60725e-05
1.68571e-05
1.76868e-05
1.83505e-05
1.88187e-05
1.91257e-05
1.93121e-05
1.92471e-05
1.90298e-05
1.90091e-05
2.03733e-05
3.17331e-05
3.3805e-05
3.26378e-05
3.22919e-05
3.23948e-05
3.26604e-05
3.29153e-05
3.30613e-05
3.30557e-05
3.28917e-05
3.25824e-05
3.21509e-05
3.16257e-05
3.10383e-05
3.04215e-05
2.98092e-05
2.92354e-05
2.87339e-05
2.83367e-05
2.80741e-05
2.79729e-05
2.80558e-05
2.83403e-05
2.88375e-05
2.95506e-05
3.04746e-05
3.15954e-05
3.28917e-05
3.43378e-05
3.59097e-05
3.75924e-05
3.93886e-05
4.13154e-05
4.34022e-05
4.57125e-05
4.83824e-05
5.17147e-05
)
;
    }
    rightWall
    {
        type            nutkWallFunction;
        blending        stepwise;
        Cmu             0.09;
        kappa           0.41;
        E               9.8;
        value           nonuniform List<scalar> 
50
(
6.28499e-06
1.20586e-05
1.56619e-05
1.86365e-05
2.14449e-05
2.44036e-05
2.78172e-05
3.2047e-05
4.13752e-05
5.47975e-05
7.20652e-05
9.17552e-05
0.00011055
0.000124761
0.000133779
0.000139435
0.000144629
0.00015167
0.000160585
0.000168946
0.000174738
0.000179249
0.000189669
0.000206888
0.000226218
0.000238556
0.000239161
0.000237507
0.000233658
0.000227037
0.000218867
0.000208894
0.000197745
0.000186069
0.000174381
0.000163062
0.000152399
0.000142488
0.000133324
0.000124807
0.000116795
0.000109136
0.000101695
9.43841e-05
8.71987e-05
8.02382e-05
7.37048e-05
6.78344e-05
6.28953e-05
5.8734e-05
)
;
    }
    lowerWall
    {
        type            nutkWallFunction;
        blending        stepwise;
        Cmu             0.09;
        kappa           0.41;
        E               9.8;
        value           nonuniform List<scalar> 
62
(
5.96421e-06
7.92526e-06
9.84038e-06
1.10982e-05
1.20196e-05
1.2709e-05
1.32771e-05
1.37685e-05
1.42046e-05
1.45935e-05
1.49357e-05
1.52268e-05
1.54593e-05
1.56218e-05
1.56972e-05
1.56585e-05
1.55495e-05
1.53112e-05
1.49171e-05
1.43628e-05
1.36499e-05
1.26723e-05
1.12581e-05
1.12581e-05
3.02299e-05
3.54118e-05
3.98237e-05
4.29992e-05
4.57394e-05
4.8443e-05
5.1706e-05
5.83329e-05
5.5638e-05
5.26219e-05
4.96356e-05
0
2.0318e-05
2.56202e-05
2.91673e-05
3.1739e-05
3.44212e-05
4.33449e-05
5.84762e-05
0
1.95673e-06
4.16079e-06
5.65602e-06
6.86702e-06
7.97902e-06
8.83102e-06
9.35173e-06
9.44332e-06
9.30342e-06
8.73426e-06
7.75039e-06
6.43367e-06
4.88397e-06
3.4617e-06
2.07209e-06
5.59631e-07
0
0
)
;
    }
    atmosphere
    {
        type            calculated;
        value           nonuniform List<scalar> 
46
(
0.009
0.009
0.009
0.009
0.009
0.009
0.009
0.009
0.009
0.009
0.009
0.009
0.009
0.009
0.009
0.009
0.009
0.009
0.009
0.009
0.009
0.009
0.009
0.009
0.009
0.009
0.009
0.009
0.009
0.009
0.009
0.009
0.009
0.009
0.0174816
0.0173468
0.0161446
0.0146732
0.0131245
0.0115522
0.00996411
0.00830526
0.00645925
0.00431074
0.00258426
0.000531828
)
;
    }
    defaultFaces
    {
        type            empty;
    }
}


// ************************************************************************* //
