/*--------------------------------*- C++ -*----------------------------------*\
| =========                 |                                                 |
| \\      /  F ield         | OpenFOAM: The Open Source CFD Toolbox           |
|  \\    /   O peration     | Version:  v2012                                 |
|   \\  /    A nd           | Website:  www.openfoam.com                      |
|    \\/     M anipulation  |                                                 |
\*---------------------------------------------------------------------------*/
FoamFile
{
    version     2.0;
    format      ascii;
    class       volScalarField;
    location    "0.4";
    object      p;
}
// * * * * * * * * * * * * * * * * * * * * * * * * * * * * * * * * * * * * * //

dimensions      [1 -1 -2 0 0 0 0];


internalField   nonuniform List<scalar> 
2268
(
835.993
836.761
846.26
858.524
869.626
878.726
885.976
892.052
897.645
903.323
909.579
916.91
925.905
937.362
952.453
972.951
1000.53
1036.29
1079.36
1124.08
1162.92
1165.93
1204.3
776.461
775.559
783.336
793.829
803.798
812.367
819.521
825.736
831.579
837.57
844.204
852.006
861.607
873.848
889.831
911.158
940.067
977.862
1024.61
1073.87
1115.28
1112.03
1145.74
716.082
715.697
721.86
730.217
738.583
746.134
752.76
758.775
764.62
770.757
777.668
785.892
796.095
809.149
826.175
848.715
878.622
917.397
964.987
1015.3
1058.73
1062.62
1094.96
655.54
656.214
661.258
667.884
674.696
681.083
686.949
692.522
698.151
704.241
711.256
719.732
730.34
743.95
761.644
784.778
814.979
853.463
900.008
949.404
993.965
1009.63
1053.1
595.013
596.853
601.026
606.227
611.665
616.925
621.976
627.005
632.301
638.22
645.201
653.766
664.567
678.44
696.392
719.605
749.419
786.737
831.255
878.851
923.243
951.425
1008.65
534.401
537.234
540.656
544.607
548.823
553.038
557.293
561.757
566.674
572.36
579.226
587.77
598.61
612.525
630.426
653.323
682.273
717.886
759.751
804.619
846.817
886.198
951.328
473.704
477.259
479.903
482.677
485.788
489.048
492.554
496.469
500.998
506.427
513.131
521.581
532.352
546.15
563.773
586.056
613.794
647.302
685.943
726.784
763.71
809.574
865.206
413.035
417.119
418.8
420.309
422.357
424.746
427.567
430.967
435.124
440.292
446.815
455.128
465.757
479.318
496.487
517.919
544.167
575.215
610.021
645.093
672.718
707.596
729.232
271.05
271.054
271.072
271.137
271.243
271.363
271.488
271.626
271.761
271.863
271.913
271.909
271.863
271.795
271.724
271.666
271.629
271.612
271.614
270.99
270.996
271.007
271.07
271.178
271.295
271.413
271.545
271.679
271.782
271.835
271.837
271.796
271.731
271.662
271.605
271.569
271.553
271.555
270.927
270.93
270.928
270.996
271.114
271.229
271.336
271.461
271.597
271.704
271.761
271.767
271.731
271.668
271.6
271.541
271.501
271.483
271.486
270.859
270.857
270.833
270.912
271.05
271.167
271.261
271.38
271.524
271.637
271.699
271.706
271.67
271.607
271.534
271.47
271.423
271.402
271.407
270.787
270.781
270.721
270.818
270.988
271.111
271.186
271.3
271.458
271.581
271.647
271.656
271.617
271.547
271.465
271.391
271.334
271.307
271.317
270.713
270.715
270.599
270.721
270.938
271.071
271.115
271.218
271.394
271.532
271.605
271.613
271.569
271.488
271.393
271.302
271.231
271.197
271.212
270.63
270.736
270.482
270.639
270.914
271.065
271.065
271.138
271.333
271.491
271.569
271.576
271.525
271.431
271.318
271.205
271.112
271.069
271.089
270.348
270.273
270.196
270.478
270.898
271.071
271.027
271.067
271.302
271.479
271.543
271.543
271.484
271.373
271.237
271.096
270.974
270.918
270.942
318.304
322.607
322.523
321.859
322.153
323.219
325.036
327.687
331.302
336.09
342.343
350.434
360.794
373.887
390.173
410.061
433.788
460.678
489.036
513.502
522.133
490.953
315.938
189.818
190.98
185.862
182.588
181.057
180.773
181.641
183.59
186.676
191.06
196.976
204.735
214.674
227.076
242.106
259.97
281.055
303.554
327.22
346.455
351.825
330.201
290.045
73.6573
68.4036
57.1317
54.8954
54.314
54.3532
55.0227
56.2583
58.1749
60.9498
64.8064
70.061
77.1142
86.3241
97.7972
111.487
127.351
147.13
169.156
188.783
204.038
213.435
218.937
10.6603
6.22859
3.26125
3.09901
3.21766
3.53996
3.97086
4.47299
5.08427
5.85732
6.86477
8.22695
10.1287
12.7799
16.2699
20.5508
25.2822
29.685
39.0724
48.0986
62.547
83.5087
94.841
-0.541126
-0.229522
-0.14343
-0.187136
-0.203514
-0.210833
-0.223955
-0.239896
-0.253009
-0.260917
-0.264223
-0.265515
-0.269977
-0.286475
-0.324859
-0.400534
-0.507618
-0.194924
0.0363746
-0.0226879
2.02696
7.56455
12.476
-0.455554
-0.437053
-0.371572
-0.345802
-0.323469
-0.304155
-0.291716
-0.285971
-0.285583
-0.289569
-0.297163
-0.307523
-0.319503
-0.331002
-0.336179
-0.319037
-0.26092
-0.339906
-0.818591
-1.38044
-1.68506
-2.07458
-1.39716
-0.62262
-0.582656
-0.540562
-0.516084
-0.503083
-0.494855
-0.490494
-0.490066
-0.492922
-0.498328
-0.505806
-0.515149
-0.526449
-0.540072
-0.556354
-0.574985
-0.594307
-0.628413
-0.684115
-0.708835
-0.725705
-1.00716
-1.63838
-0.757103
-0.729501
-0.705108
-0.687292
-0.67694
-0.671182
-0.669018
-0.670288
-0.674506
-0.681081
-0.689612
-0.700018
-0.712691
-0.728633
-0.749493
-0.777595
-0.816323
-0.878875
-0.986374
-1.10694
-1.18818
-1.2422
-1.37316
-0.916365
-0.892573
-0.874993
-0.861249
-0.852451
-0.847765
-0.846539
-0.848542
-0.853429
-0.860774
-0.870268
-0.881897
-0.896133
-0.914076
-0.937481
-0.968814
-1.01197
-1.07531
-1.16555
-1.26665
-1.36103
-1.46639
-1.63175
-1.0798
-1.06248
-1.04897
-1.03816
-1.03098
-1.02737
-1.02702
-1.02973
-1.03527
-1.04333
-1.05369
-1.06639
-1.08197
-1.10155
-1.12683
-1.15999
-1.20392
-1.26262
-1.33804
-1.42441
-1.5173
-1.62532
-1.75689
-1.24781
-1.23589
-1.22544
-1.21695
-1.21128
-1.20867
-1.20907
-1.21239
-1.21849
-1.22717
-1.23827
-1.25186
-1.2685
-1.28926
-1.3157
-1.34964
-1.39302
-1.44786
-1.51499
-1.59239
-1.67836
-1.77559
-1.8858
-1.41895
-1.41123
-1.40311
-1.39645
-1.39207
-1.39034
-1.39136
-1.39517
-1.40175
-1.41099
-1.42275
-1.43711
-1.45455
-1.4761
-1.50315
-1.53718
-1.57953
-1.63128
-1.69277
-1.76316
-1.84155
-1.92877
-2.02506
-1.59198
-1.5871
-1.58078
-1.57564
-1.57241
-1.57147
-1.57304
-1.57731
-1.58438
-1.5942
-1.60664
-1.6217
-1.63981
-1.66192
-1.6893
-1.72316
-1.76442
-1.81361
-1.87078
-1.93551
-2.00739
-2.08681
-2.17356
-1.76586
-1.76262
-1.75772
-1.75385
-1.75166
-1.75145
-1.75355
-1.75832
-1.766
-1.77654
-1.78974
-1.80552
-1.82426
-1.84688
-1.87454
-1.90826
-1.94862
-1.99581
-2.04973
-2.11017
-2.17708
-2.25078
-2.33101
-1.93976
-1.93732
-1.93352
-1.93071
-1.92942
-1.92989
-1.93258
-1.93801
-1.94647
-1.9579
-1.97199
-1.98859
-2.00805
-2.03128
-2.05935
-2.09308
-2.13284
-2.17859
-2.23024
-2.28774
-2.35129
-2.42123
-2.49739
-2.11305
-2.11092
-2.10797
-2.10604
-2.10552
-2.10668
-2.11008
-2.11636
-2.12583
-2.13833
-2.15343
-2.17096
-2.19129
-2.2153
-2.24396
-2.27792
-2.31737
-2.36227
-2.41257
-2.46844
-2.53014
-2.59799
-2.67193
-2.28539
-2.28328
-2.28099
-2.27978
-2.27999
-2.2819
-2.28619
-2.29353
-2.30417
-2.31784
-2.33405
-2.35262
-2.37394
-2.39888
-2.42827
-2.46263
-2.5021
-2.54674
-2.59668
-2.65216
-2.71339
-2.78056
-2.85378
-2.45656
-2.45438
-2.45261
-2.45203
-2.45297
-2.45575
-2.46109
-2.46964
-2.48152
-2.49635
-2.51367
-2.53334
-2.55579
-2.58178
-2.61201
-2.64692
-2.68678
-2.73186
-2.78241
-2.83861
-2.90049
-2.96818
-3.04202
-2.6265
-2.62424
-2.6229
-2.62292
-2.62464
-2.6284
-2.63492
-2.6447
-2.65776
-2.67366
-2.69203
-2.71284
-2.73652
-2.76367
-2.79487
-2.83058
-2.87132
-2.91755
-2.96955
-3.0273
-3.09067
-3.15988
-3.23556
-2.79516
-2.79289
-2.79195
-2.79256
-2.7951
-2.79993
-2.80764
-2.81858
-2.83265
-2.84947
-2.86884
-2.89086
-2.91588
-2.94432
-2.97665
-3.0135
-3.05564
-3.10366
-3.15771
-3.21754
-3.28302
-3.35457
-3.43305
-2.96252
-2.96034
-2.95977
-2.96098
-2.96435
-2.97024
-2.97906
-2.991
-3.00588
-3.02349
-3.04387
-3.06722
-3.09374
-3.12362
-3.1573
-3.19564
-3.23963
-3.28984
-3.34622
-3.40841
-3.47645
-3.55097
-3.63287
-3.12854
-3.12656
-3.12633
-3.1281
-3.13227
-3.13914
-3.14894
-3.16166
-3.17719
-3.19556
-3.21704
-3.24187
-3.27001
-3.30146
-3.3367
-3.37683
-3.42293
-3.47543
-3.53411
-3.59874
-3.66962
-3.74748
-3.83304
-3.29317
-3.29148
-3.29153
-3.29381
-3.29871
-3.30644
-3.31705
-3.33042
-3.34654
-3.36572
-3.38842
-3.41479
-3.44455
-3.47758
-3.5145
-3.55656
-3.6048
-3.65944
-3.72028
-3.78737
-3.86124
-3.94255
-4.0318
-3.45633
-3.45501
-3.4553
-3.45802
-3.46356
-3.47204
-3.48333
-3.49727
-3.51401
-3.5341
-3.55806
-3.58586
-3.61705
-3.65151
-3.69005
-3.73399
-3.78418
-3.84075
-3.90364
-3.97325
-4.05022
-4.135
-4.22807
-3.61798
-3.61706
-3.61756
-3.62068
-3.62678
-3.6359
-3.64779
-3.6623
-3.67971
-3.70071
-3.72579
-3.75475
-3.78705
-3.8227
-3.86269
-3.90829
-3.96017
-4.01843
-4.08333
-4.15552
-4.23558
-4.32383
-4.42099
-3.77805
-3.77757
-3.77828
-3.7818
-3.78842
-3.79809
-3.81052
-3.82555
-3.84357
-3.86532
-3.89122
-3.92096
-3.95404
-3.99068
-4.03195
-4.07895
-4.1322
-4.19193
-4.25873
-4.33335
-4.41628
-4.50789
-4.6093
-3.9365
-3.93647
-3.93743
-3.94135
-3.94843
-3.95858
-3.97146
-3.98689
-4.00533
-4.02756
-4.05392
-4.0841
-4.11772
-4.15518
-4.19752
-4.24562
-4.29989
-4.36082
-4.42923
-4.50586
-4.59119
-4.68588
-4.79133
-4.09327
-4.09368
-4.0949
-4.0992
-4.10666
-4.11719
-4.13038
-4.14605
-4.16471
-4.18715
-4.2137
-4.24406
-4.27803
-4.31608
-4.35911
-4.40781
-4.46264
-4.52436
-4.59389
-4.67194
-4.75909
-4.85636
-4.96531
-4.24835
-4.24913
-4.25058
-4.2552
-4.26293
-4.2737
-4.28703
-4.30278
-4.32152
-4.34402
-4.37059
-4.40096
-4.435
-4.47319
-4.51628
-4.56488
-4.61966
-4.6816
-4.75162
-4.83035
-4.91863
-5.01778
-5.12936
-4.40168
-4.4028
-4.4044
-4.40926
-4.41713
-4.42799
-4.44133
-4.45707
-4.4758
-4.49826
-4.52466
-4.55473
-4.58841
-4.62611
-4.6685
-4.7163
-4.77044
-4.83201
-4.90174
-4.98025
-5.0687
-5.16863
-5.28157
-4.55318
-4.55471
-4.55631
-4.56138
-4.56927
-4.5801
-4.59337
-4.60902
-4.62763
-4.64983
-4.67572
-4.70506
-4.73782
-4.77441
-4.81549
-4.86196
-4.91496
-4.97546
-5.04398
-5.12118
-5.20852
-5.30766
-5.4202
-4.70278
-4.70497
-4.70641
-4.71167
-4.71945
-4.73014
-4.74324
-4.75867
-4.77692
-4.79849
-4.82343
-4.85157
-4.88297
-4.91803
-4.95741
-5.00212
-5.05335
-5.11187
-5.17804
-5.25264
-5.33736
-5.43387
-5.54398
-4.85058
-4.85378
-4.85486
-4.86034
-4.86785
-4.87826
-4.89099
-4.90593
-4.92345
-4.94397
-4.96757
-4.99421
-5.02402
-5.05731
-5.09468
-5.13711
-5.18571
-5.24111
-5.30366
-5.37428
-5.45478
-5.5467
-5.6522
-4.99681
-5.00134
-5.00172
-5.00758
-5.01462
-5.02459
-5.0367
-5.05081
-5.06723
-5.08638
-5.10841
-5.13337
-5.16137
-5.19262
-5.22755
-5.26705
-5.31213
-5.36333
-5.42106
-5.48629
-5.56089
-5.64636
-5.74499
-5.14133
-5.14803
-5.14663
-5.15343
-5.15986
-5.16929
-5.18056
-5.19357
-5.20868
-5.22628
-5.24655
-5.26956
-5.29536
-5.32406
-5.35601
-5.39197
-5.43279
-5.47891
-5.53073
-5.58931
-5.65637
-5.73349
-5.82284
-5.28306
-5.29473
-5.28903
-5.29824
-5.3038
-5.31255
-5.32281
-5.33456
-5.34825
-5.3642
-5.38249
-5.40317
-5.42628
-5.45194
-5.48042
-5.5123
-5.5482
-5.58841
-5.63338
-5.68416
-5.74236
-5.80938
-5.88702
-5.42096
-5.4419
-5.42954
-5.44281
-5.44666
-5.45451
-5.46357
-5.47397
-5.48616
-5.50033
-5.51642
-5.53447
-5.55461
-5.57693
-5.60156
-5.62883
-5.65911
-5.69269
-5.73005
-5.77221
-5.82046
-5.87582
-5.9396
-5.55674
-5.58818
-5.57038
-5.58629
-5.58846
-5.59532
-5.60305
-5.61197
-5.62254
-5.63477
-5.64851
-5.66381
-5.68083
-5.6996
-5.72004
-5.74224
-5.76646
-5.79295
-5.82219
-5.85497
-5.89226
-5.93467
-5.98311
-5.69127
-5.73607
-5.7099
-5.72907
-5.72982
-5.73551
-5.74177
-5.7491
-5.75789
-5.76802
-5.77928
-5.79169
-5.80541
-5.82039
-5.83643
-5.85341
-5.87143
-5.89069
-5.9115
-5.93442
-5.96004
-5.98868
-6.02077
-5.816
-5.89432
-5.8499
-5.87175
-5.87225
-5.8759
-5.88034
-5.88587
-5.89273
-5.90067
-5.90936
-5.9188
-5.92913
-5.94026
-5.95187
-5.96369
-5.97568
-5.9879
-6.00046
-6.01355
-6.02739
-6.04208
-6.05759
-5.90849
-6.08038
-6.0014
-6.01642
-6.01543
-6.01639
-6.01874
-6.02234
-6.02713
-6.03277
-6.03891
-6.04546
-6.05248
-6.05978
-6.06701
-6.07384
-6.08008
-6.08559
-6.09014
-6.09361
-6.09604
-6.09746
-6.09803
-5.97268
-6.27725
-6.16818
-6.1632
-6.15858
-6.15711
-6.15755
-6.15918
-6.16167
-6.16476
-6.16823
-6.17185
-6.1754
-6.17863
-6.18125
-6.18285
-6.18303
-6.18131
-6.17724
-6.17041
-6.16054
-6.1477
-6.1325
-65.6217
-5.84491
113.043
168.482
228.898
215.528
208.251
190.545
198.013
177.304
162.732
154.327
84.8235
80.2055
80.2928
82.1392
10.2488
9.19729
10.3268
14.7404
0.143591
0.238861
0.78695
3.70276
-1.9559
-2.05229
-2.06752
-2.09088
-1.46332
-1.52023
-1.5775
-1.63748
-1.78108
-1.85823
-1.91666
-1.96134
-1.84879
-1.90318
-1.95666
-2.01146
-1.96853
-2.01978
-2.06957
-2.11864
-2.09793
-2.14365
-2.18911
-2.2352
-2.23988
-2.28229
-2.32497
-2.36877
-2.39308
-2.43347
-2.47452
-2.51692
-2.55712
-2.5965
-2.63681
-2.6785
-2.73067
-2.76984
-2.81009
-2.85177
-2.91244
-2.95188
-2.99268
-3.03508
-3.10157
-3.14188
-3.18381
-3.22754
-3.29697
-3.33872
-3.38232
-3.42787
-3.49696
-3.54046
-3.58601
-3.63367
-3.69955
-3.74491
-3.79256
-3.8425
-3.9026
-3.94995
-3.99994
-4.05248
-4.10434
-4.15405
-4.20687
-4.26244
-4.30402
-4.35655
-4.41273
-4.47166
-4.50093
-4.55663
-4.61637
-4.67877
-4.69343
-4.75224
-4.81534
-4.8812
-4.87928
-4.9409
-5.00708
-5.0763
-5.05657
-5.12075
-5.18985
-5.2622
-5.22337
-5.28981
-5.36144
-5.43642
-5.37733
-5.44533
-5.51884
-5.59586
-5.51648
-5.58506
-5.65938
-5.73762
-5.63922
-5.70723
-5.78114
-5.85935
-5.74448
-5.81071
-5.88291
-5.95936
-5.83208
-5.8949
-5.96346
-6.0358
-5.90219
-5.95957
-6.02218
-6.08802
-5.9561
-6.00602
-6.06049
-6.11777
-5.99641
-6.03734
-6.08193
-6.12866
-6.02634
-6.05722
-6.09052
-6.125
-6.04928
-6.06934
-6.09067
-6.11228
-6.07088
-6.0801
-6.08975
-6.09908
-6.09876
-6.09891
-6.09854
-6.09695
-6.12102
-6.11338
-6.10515
-6.0957
218.804
258.097
268.168
267.366
268.275
270.299
270.743
270.91
271.345
271.518
271.529
271.497
271.425
271.278
271.097
270.902
270.722
270.636
270.663
164.609
183.603
206.452
210.014
217.482
235.148
248.684
257.39
265.779
270.698
271.466
271.449
271.343
271.138
270.861
270.548
270.225
270.048
270.079
142.491
153.527
158.296
161.814
168.214
181.118
195.456
207.92
221.901
241.806
261.44
270.446
271.149
270.896
270.573
270.082
269.48
269.105
269.116
83.2154
81.7739
89.4152
95.3799
103.541
118.05
135.88
153.116
171.232
193.455
217.751
243.649
266.378
270.276
270.094
269.48
268.358
267.536
267.447
21.7594
24.1247
29.1185
34.4865
40.6994
52.1179
67.3825
84.2701
104.249
130.824
162.543
197.942
233.862
261.124
268.526
268.181
266.472
264.853
264.481
9.98061
13.0633
18.1078
22.9066
24.75
27.4932
30.2678
35.5861
44.1975
63.0002
94.0174
137.325
186.071
232.042
258.523
264.028
262.587
260.031
259.194
-2.1958
-2.35653
-2.46528
-2.50067
-2.55968
-2.34931
0.507822
6.52323
14.2116
26.4364
37.4771
73.5384
128.273
186.924
232.852
251.303
253.823
250.968
249.94
-1.7515
-1.87279
-1.96201
-2.01862
-2.03786
-1.99028
-2.04204
-2.28468
-2.42981
-2.11904
4.0762
24.8411
70.4313
136.625
197.585
230.317
235.026
233.706
234.304
-2.01851
-2.12839
-2.21651
-2.26861
-2.28278
-2.24602
-2.21796
-2.19141
-2.10932
-1.95577
-2.03446
-0.827944
17.7805
87.4361
159.025
199.058
204.561
206.569
210.418
-2.10402
-2.21235
-2.2949
-2.34824
-2.3716
-2.3637
-2.34931
-2.33047
-2.27355
-2.15232
-2.01581
-2.27063
-3.13885
44.2624
118.814
160.878
169.463
173.277
179.021
-2.20029
-2.30272
-2.38488
-2.44341
-2.47618
-2.48237
-2.4696
-2.43665
-2.37018
-2.26532
-2.12369
-2.104
-2.77724
14.586
80.9699
120.612
131.394
136.207
142.626
-2.31318
-2.41392
-2.4981
-2.56174
-2.60169
-2.61542
-2.60327
-2.56311
-2.49167
-2.39414
-2.26761
-2.20541
-2.32149
1.01409
49.5975
81.7458
91.4166
95.2692
104.009
-2.44355
-2.54306
-2.62952
-2.69833
-2.74513
-2.76537
-2.75554
-2.71253
-2.63606
-2.53472
-2.40524
-2.27422
-2.19733
-3.75317
26.5294
48.8985
52.7066
54.8052
69.8166
-2.58953
-2.68844
-2.77754
-2.85184
-2.90568
-2.93246
-2.92568
-2.88084
-2.79788
-2.68648
-2.53876
-2.38039
-2.53924
-5.63331
12.8582
27.3898
27.903
29.6063
47.6591
-2.74997
-2.84946
-2.94202
-3.02224
-3.08332
-3.11631
-3.1127
-3.06579
-2.97529
-2.85131
-2.678
-2.49355
-2.84218
-6.13727
7.31235
16.3811
16.9044
22.7365
36.2155
-2.92337
-3.02499
-3.12224
-3.2089
-3.27725
-3.31641
-3.31538
-3.2657
-3.16703
-3.03052
-2.82726
-2.68037
-3.46778
-5.87953
5.25196
8.52037
8.62317
21.3336
29.0653
-3.10826
-3.21356
-3.31655
-3.41036
-3.48574
-3.5306
-3.53109
-3.47675
-3.36888
-3.22125
-3.00147
-3.04154
-3.96507
-4.96273
8.43271
11.9398
6.20685
18.1066
21.4151
-3.30324
-3.41339
-3.52275
-3.62383
-3.70594
-3.75507
-3.75474
-3.69212
-3.57089
-3.40259
-3.1366
-3.46502
-5.96206
-8.12245
10.3876
14.5181
8.96231
13.2692
13.3621
-3.50669
-3.62207
-3.73794
-3.8459
-3.9336
-3.98461
-3.97991
-3.90511
-3.76789
-3.58601
-3.3645
-4.86777
-10.102
-7.72901
6.03042
11.4974
8.61432
8.89764
7.44024
-3.71617
-3.83709
-3.95881
-4.07249
-4.16364
-4.21274
-4.19805
-4.10558
-3.94917
-3.76975
-3.43366
-2.85976
-0.871193
-0.895048
-4.98185
2.26381
5.18467
5.11425
4.32306
-3.92898
-4.05576
-4.18278
-4.30022
-4.39157
-4.43367
-4.40252
-4.28586
-4.09728
-3.91027
-3.52928
-1.15391
10.991
11.0271
-15.5024
-6.65763
1.72845
1.93787
2.57085
-4.14332
-4.27601
-4.40833
-4.52825
-4.61651
-4.64643
-4.59497
-4.45512
-4.23173
-3.98589
-3.99086
-3.41113
-1.29619
-1.67191
-12.4867
-11.0879
-1.42837
-0.574482
1.03494
-4.35818
-4.49702
-4.63547
-4.75905
-4.84505
-4.86225
-4.79286
-4.64642
-4.40418
-3.97557
-3.50068
-2.72867
-1.35356
-2.06044
-6.21001
-8.19881
-2.71523
-1.67854
-0.0976651
-4.57264
-4.7187
-4.8654
-4.9971
-5.08954
-5.10852
-5.04498
-4.93758
-4.72007
-4.36293
-3.68676
-2.15036
-0.357879
-0.0734426
-1.60933
-3.37135
-1.49759
-1.17623
-0.524872
-4.78528
-4.94037
-5.0985
-5.24486
-5.35634
-5.40177
-5.38612
-5.35466
-4.90281
-5.72857
-7.37732
-0.91865
1.11648
2.29543
1.22907
0.0285511
0.236171
-0.0787764
-0.442739
-4.99377
-5.15964
-5.33211
-5.49809
-5.63679
-5.7356
-5.82954
-5.84554
-5.9289
-3.92799
-3.79023
-0.785131
2.75068
4.10264
2.91899
1.87846
1.19934
0.591121
-0.379009
-5.19516
-5.37282
-5.56123
-5.74804
-5.91475
-6.06099
-6.20146
-6.12706
-5.62506
-4.92457
-5.09212
-3.2182
3.93528
4.77506
3.63346
2.36457
1.35647
0.551753
-0.645108
-5.38687
-5.57604
-5.78103
-5.99032
-6.18864
-6.36724
-6.51622
-6.581
-7.06549
-6.50241
-7.57125
-6.16156
2.7634
4.17935
3.18933
1.80285
0.762176
-0.112316
-1.24775
-5.56621
-5.76607
-5.98723
-6.22013
-6.45111
-6.65341
-6.84451
-6.96642
-7.19951
-6.91657
-8.72796
-8.80607
-0.476211
2.42753
2.03163
0.456641
-0.57081
-1.29508
-2.12929
-5.72991
-5.9394
-6.1757
-6.43175
-6.69472
-6.93309
-7.17741
-7.36643
-7.34103
-6.86956
-10.8102
-13.6617
-7.50956
-0.25991
0.76624
-1.52127
-2.48388
-2.88704
-3.23395
-5.87448
-6.09174
-6.34148
-6.61981
-6.9187
-7.21541
-7.48916
-7.8381
-8.04742
-8.85467
-13.4628
-20.7552
-19.2414
-4.85541
-1.9181
-4.49751
-4.82394
-4.77079
-4.48276
-5.99675
-6.21838
-6.47807
-6.7757
-7.10941
-7.46515
-7.79446
-8.34158
-9.12236
-10.2217
-11.3765
-24.3261
-25.8772
-13.2225
-8.44953
-8.50074
-7.4258
-6.70893
-5.73821
-6.09388
-6.3146
-6.57833
-6.88856
-7.2487
-7.65187
-8.06996
-8.62839
-9.52922
-10.0984
-10.023
-20.5865
-23.4327
-20.0295
-15.5882
-11.9168
-9.7634
-8.33323
-6.79905
-6.16348
-6.37658
-6.63644
-6.94907
-7.32225
-7.75806
-8.24349
-8.81202
-9.64073
-10.4516
-11.6065
-10.5785
-11.793
-19.4048
-18.5813
-13.5668
-11.1548
-9.23553
-7.48162
-6.20485
-6.4029
-6.64912
-6.9515
-7.3205
-7.76525
-8.28844
-8.92508
-9.77842
-10.8402
-11.9915
-13.8629
-15.9397
-18.4563
-17.8865
-13.6529
-11.3266
-9.28375
-7.73131
-6.21964
-6.39488
-6.61659
-6.89406
-7.23859
-7.66375
-8.1847
-8.83131
-9.65295
-10.6869
-11.8563
-13.1619
-14.7611
-16.1406
-15.3081
-12.4621
-10.5228
-8.73758
-7.65776
-6.21159
-6.35637
-6.5428
-6.78037
-7.07927
-7.45187
-7.91474
-8.49622
-9.23149
-10.1278
-11.1248
-12.1345
-13.1202
-13.6075
-12.5652
-10.7276
-9.30213
-7.99099
-7.43446
-6.18596
-6.29416
-6.43627
-6.62124
-6.85717
-7.15186
-7.51707
-7.97727
-8.54808
-9.21861
-9.92917
-10.5782
-11.0404
-11.0514
-10.2264
-9.06739
-8.12195
-7.31825
-7.1843
-6.15012
-6.21867
-6.31129
-6.43644
-6.60037
-6.8035
-7.04806
-7.36307
-7.75133
-8.18369
-8.61244
-8.95074
-9.10654
-8.95399
-8.40028
-7.70815
-7.1603
-6.7968
-6.93257
-6.1149
-6.14408
-6.18742
-6.25344
-6.34573
-6.44969
-6.54676
-6.71608
-6.9587
-7.211
-7.43971
-7.59286
-7.61792
-7.46092
-7.11857
-6.73561
-6.4742
-6.41556
-6.66464
-6.09217
-6.08398
-6.07827
-6.08293
-6.09705
-6.07817
-5.96102
-6.00135
-6.20526
-6.37363
-6.50627
-6.58291
-6.57939
-6.47581
-6.28389
-6.08556
-5.97917
-6.05598
-6.32271
-6.07655
-6.03943
-5.98676
-5.91611
-5.81943
-5.64866
-5.32519
-5.32228
-5.58155
-5.72822
-5.82853
-5.90766
-5.96318
-5.98781
-5.98412
-5.97869
-5.99196
-6.0193
-6.03916
)
;

boundaryField
{
    leftWall
    {
        type            calculated;
        value           nonuniform List<scalar> 
50
(
835.993
776.461
716.082
655.54
595.013
534.401
473.704
413.035
318.304
189.818
73.6573
10.6603
-0.541126
-0.455554
-0.62262
-0.757103
-0.916365
-1.0798
-1.24781
-1.41895
-1.59198
-1.76586
-1.93976
-2.11305
-2.28539
-2.45656
-2.6265
-2.79516
-2.96252
-3.12854
-3.29317
-3.45633
-3.61798
-3.77805
-3.9365
-4.09327
-4.24835
-4.40168
-4.55318
-4.70278
-4.85058
-4.99681
-5.14133
-5.28306
-5.42096
-5.55674
-5.69127
-5.816
-5.90849
-5.97268
)
;
    }
    rightWall
    {
        type            calculated;
        value           nonuniform List<scalar> 
50
(
271.614
271.555
271.486
271.407
271.317
271.212
271.089
270.942
270.663
270.079
269.116
267.447
264.481
259.194
249.94
234.304
210.418
179.021
142.626
104.009
69.8166
47.6591
36.2155
29.0653
21.4151
13.3621
7.44024
4.32306
2.57085
1.03494
-0.0976651
-0.524872
-0.442739
-0.379009
-0.645108
-1.24775
-2.12929
-3.23395
-4.48276
-5.73821
-6.79905
-7.48162
-7.73131
-7.65776
-7.43446
-7.1843
-6.93257
-6.66464
-6.32271
-6.03916
)
;
    }
    lowerWall
    {
        type            calculated;
        value           nonuniform List<scalar> 
62
(
865.422
866.19
875.689
887.953
899.055
908.155
915.405
921.481
927.075
932.753
939.009
946.339
955.334
966.791
981.882
1002.38
1029.96
1065.72
1108.79
1153.51
1191.99
1192.83
1231.2
1204.3
1145.74
1094.96
1053.1
1008.65
951.328
865.206
729.232
-3.1912
56.5856
175.516
231.006
271.05
270.99
270.927
270.859
270.787
270.713
270.63
270.348
271.079
271.083
271.101
271.166
271.273
271.392
271.518
271.655
271.79
271.892
271.942
271.939
271.893
271.824
271.753
271.695
271.658
271.642
271.644
)
;
    }
    atmosphere
    {
        type            calculated;
        value           nonuniform List<scalar> 
46
(
-6.08176
-6.27961
-6.23777
-6.23318
-6.22897
-6.22723
-6.22704
-6.22776
-6.22903
-6.23071
-6.2327
-6.2347
-6.23634
-6.2373
-6.23731
-6.23597
-6.23273
-6.22694
-6.21798
-6.20522
-6.18811
-6.16637
-6.14026
-6.11873
-6.10524
-6.09255
-6.08031
-6.05846
-6.01463
-5.9576
-5.89183
-5.82709
-5.77529
-5.74819
-5.72904
-5.72904
-5.72904
-5.72906
-5.72914
-5.72927
-5.72925
-5.72912
-5.72907
-5.72905
-5.72905
-5.72904
)
;
    }
    defaultFaces
    {
        type            empty;
    }
}


// ************************************************************************* //
