/*--------------------------------*- C++ -*----------------------------------*\
| =========                 |                                                 |
| \\      /  F ield         | OpenFOAM: The Open Source CFD Toolbox           |
|  \\    /   O peration     | Version:  v2012                                 |
|   \\  /    A nd           | Website:  www.openfoam.com                      |
|    \\/     M anipulation  |                                                 |
\*---------------------------------------------------------------------------*/
FoamFile
{
    version     2.0;
    format      ascii;
    class       volScalarField;
    location    "0.4";
    object      p_rgh;
}
// * * * * * * * * * * * * * * * * * * * * * * * * * * * * * * * * * * * * * //

dimensions      [1 -1 -2 0 0 0 0];


internalField   nonuniform List<scalar> 
2268
(
865.422
866.19
875.689
887.953
899.055
908.155
915.405
921.481
927.075
932.753
939.009
946.339
955.334
966.791
981.882
1002.38
1029.96
1065.72
1108.79
1153.51
1191.99
1192.83
1231.2
864.749
863.847
871.624
882.117
892.086
900.655
907.809
914.024
919.867
925.858
932.492
940.294
949.895
962.136
978.119
999.446
1028.36
1066.15
1112.9
1162.15
1203.57
1193.61
1232.52
863.229
862.844
869.007
877.364
885.73
893.281
899.907
905.922
911.767
917.904
924.814
933.039
943.242
956.296
973.321
995.862
1025.77
1064.54
1112.13
1162.44
1205.88
1208.17
1241.64
861.545
862.219
867.263
873.89
880.702
887.088
892.955
898.527
904.157
910.247
917.262
925.738
936.345
949.955
967.649
990.784
1020.98
1059.47
1106.01
1155.41
1199.97
1215.64
1258.37
859.877
861.717
865.89
871.091
876.529
881.789
886.84
891.87
897.165
903.084
910.065
918.631
929.432
943.304
961.256
984.469
1014.28
1051.6
1096.12
1143.71
1188.11
1216.29
1272.56
858.124
860.957
864.379
868.33
872.546
876.761
881.016
885.48
890.397
896.083
902.949
911.493
922.333
936.248
954.149
977.046
1006
1041.61
1083.47
1128.34
1170.54
1209.92
1273.93
856.286
859.841
862.484
865.258
868.369
871.63
875.136
879.05
883.58
889.008
895.712
904.163
914.934
928.731
946.354
968.638
996.376
1029.88
1068.52
1109.37
1146.29
1192.16
1246.47
854.476
858.56
860.241
861.75
863.797
866.187
869.007
872.407
876.564
881.732
888.255
896.568
907.197
920.759
937.927
959.36
985.607
1016.66
1051.46
1086.53
1114.16
1149.04
1169.18
271.079
271.083
271.101
271.166
271.273
271.392
271.518
271.655
271.79
271.892
271.942
271.939
271.893
271.824
271.753
271.695
271.658
271.642
271.644
271.079
271.085
271.095
271.158
271.267
271.383
271.501
271.633
271.767
271.87
271.923
271.925
271.884
271.819
271.75
271.694
271.657
271.641
271.643
271.074
271.078
271.075
271.143
271.261
271.376
271.483
271.608
271.744
271.851
271.908
271.914
271.878
271.816
271.747
271.688
271.648
271.63
271.633
271.065
271.063
271.039
271.118
271.256
271.373
271.467
271.586
271.73
271.843
271.905
271.912
271.876
271.813
271.74
271.676
271.629
271.608
271.613
271.052
271.046
270.986
271.083
271.253
271.376
271.451
271.564
271.723
271.846
271.912
271.921
271.882
271.812
271.73
271.655
271.599
271.572
271.581
271.037
271.039
270.922
271.045
271.262
271.395
271.439
271.542
271.717
271.855
271.928
271.937
271.892
271.812
271.717
271.626
271.555
271.521
271.535
271.013
271.118
270.865
271.022
271.297
271.448
271.448
271.521
271.716
271.874
271.951
271.959
271.908
271.814
271.7
271.587
271.495
271.452
271.471
272.178
270.714
270.637
270.919
271.346
271.515
271.471
271.514
271.749
271.923
271.985
271.985
271.925
271.814
271.678
271.538
271.416
271.36
271.383
851.771
856.074
855.988
855.324
855.618
856.684
858.501
861.153
864.768
869.556
875.809
883.9
894.261
907.355
923.64
943.528
967.255
994.145
1022.5
1046.97
1055.6
1024.42
848.931
848.476
849.608
844.466
841.193
839.669
839.392
840.267
842.222
845.314
849.702
855.623
863.387
873.33
885.735
900.766
918.631
939.716
962.215
985.881
1005.12
1010.49
988.862
948.707
798.669
708.414
631.568
633.171
644.48
659.981
676.059
691.76
707.713
724.537
743.023
764.484
790.285
820.768
853.592
884.64
910.133
930.986
953.012
972.64
987.894
997.292
1002.79
180.673
96.8503
47.2723
49.8977
56.351
65.727
76.7247
88.7598
102.094
117.192
135.029
157.701
189.009
234.419
299.162
390.426
518.94
674.034
853.612
957.149
971.598
992.559
1003.89
0.493118
0.804723
0.890805
0.847079
0.830683
0.823249
0.809764
0.793218
0.779907
0.772522
0.769676
0.768605
0.764224
0.747754
0.709379
0.633708
0.526627
22.7366
84.8731
179.41
384.42
783.953
1036.94
0.703886
0.722387
0.787832
0.813548
0.835834
0.85512
0.867549
0.873303
0.873711
0.869752
0.862183
0.851848
0.839887
0.828405
0.823239
0.84039
0.898513
0.819531
0.340848
-0.221
0.970178
31.6923
102.997
0.662014
0.701977
0.744026
0.768441
0.781391
0.78959
0.793943
0.794382
0.791548
0.786169
0.778718
0.7694
0.758122
0.744516
0.728247
0.709627
0.690313
0.656212
0.600514
0.575797
0.558928
0.277475
-0.353741
0.652726
0.680327
0.704691
0.722463
0.732778
0.738515
0.740674
0.739412
0.735209
0.728652
0.720139
0.709749
0.697091
0.681162
0.660311
0.632217
0.593493
0.530946
0.42345
0.302883
0.221648
0.168516
0.0418258
0.618658
0.64245
0.660019
0.673742
0.682522
0.687198
0.688422
0.686423
0.681544
0.674207
0.664721
0.653101
0.638872
0.620934
0.597536
0.566207
0.523049
0.459711
0.369469
0.268374
0.173993
0.0711952
-0.0863909
0.580417
0.597742
0.61124
0.62205
0.629224
0.632827
0.633181
0.63047
0.624932
0.616874
0.606521
0.59382
0.578242
0.558663
0.533392
0.500231
0.456305
0.397604
0.322195
0.235814
0.142917
0.0349023
-0.0966754
0.537606
0.549525
0.559969
0.568458
0.574129
0.576739
0.576343
0.573023
0.56692
0.558242
0.547147
0.53355
0.516915
0.496161
0.469719
0.43578
0.392394
0.337572
0.270454
0.193052
0.107073
0.00981907
-0.100389
0.491661
0.499375
0.507498
0.514158
0.518534
0.520267
0.519248
0.515437
0.508854
0.49962
0.487859
0.473501
0.456057
0.434511
0.407459
0.373426
0.331076
0.279331
0.217833
0.147449
0.069061
-0.0181619
-0.114457
0.443825
0.448705
0.455023
0.460165
0.463391
0.464327
0.462759
0.458495
0.451425
0.441599
0.42916
0.414101
0.395992
0.373884
0.346506
0.31264
0.271381
0.222196
0.165019
0.100295
0.0284128
-0.0510087
-0.137762
0.395132
0.398371
0.403276
0.407143
0.40934
0.409547
0.407445
0.402673
0.395
0.38446
0.37126
0.355475
0.336731
0.314113
0.286452
0.252737
0.212379
0.16519
0.111264
0.0508284
-0.0160803
-0.0897834
-0.170016
0.346434
0.348868
0.352671
0.355476
0.356775
0.356297
0.353607
0.348182
0.339717
0.328289
0.314202
0.297603
0.278136
0.25491
0.226842
0.193107
0.153352
0.107596
0.0559538
-0.00155217
-0.0650995
-0.135038
-0.211196
0.298331
0.300466
0.303419
0.305348
0.305865
0.304704
0.301301
0.29502
0.28555
0.273058
0.257952
0.24042
0.220093
0.196087
0.167426
0.133467
0.0940127
0.0491191
-0.00118211
-0.0570512
-0.118756
-0.186602
-0.260544
0.251194
0.253296
0.255591
0.256797
0.256592
0.254677
0.250391
0.243048
0.232407
0.218744
0.202534
0.183963
0.162635
0.1377
0.108306
0.0739519
0.0344811
-0.010158
-0.0600987
-0.11558
-0.176809
-0.24398
-0.317201
0.205212
0.207391
0.209163
0.209741
0.208808
0.206024
0.200682
0.192137
0.180257
0.165419
0.148104
0.128434
0.105987
0.0799976
0.0497659
0.0148527
-0.0250109
-0.0700851
-0.120638
-0.176838
-0.238715
-0.306407
-0.380249
0.160467
0.162729
0.164064
0.164044
0.162333
0.158564
0.152052
0.142268
0.129214
0.113304
0.0949361
0.0741249
0.0504519
0.0232985
-0.00789668
-0.0436127
-0.0843475
-0.130577
-0.182579
-0.24033
-0.303704
-0.372915
-0.448588
0.116999
0.119272
0.120216
0.119599
0.117059
0.112234
0.104527
0.0935823
0.0795162
0.062693
0.0433281
0.0213076
-0.00371475
-0.0321564
-0.0644858
-0.101335
-0.143473
-0.191498
-0.245546
-0.30538
-0.37086
-0.442411
-0.520885
0.0748341
0.0770155
0.0775905
0.0763798
0.0730039
0.0671214
0.0582946
0.0463587
0.0314818
0.0138699
-0.00650779
-0.0298603
-0.0563804
-0.086259
-0.11994
-0.158279
-0.202269
-0.252486
-0.30886
-0.371053
-0.439091
-0.513612
-0.595511
0.034009
0.0359893
0.0362266
0.0344524
0.0302816
0.0234147
0.0136158
0.000887583
-0.0146394
-0.0330066
-0.0544926
-0.0793208
-0.107461
-0.138905
-0.174151
-0.214281
-0.26038
-0.312881
-0.371561
-0.43619
-0.507069
-0.584924
-0.670491
-0.00541958
-0.00373587
-0.00378661
-0.00606732
-0.0109633
-0.0186972
-0.029305
-0.0426731
-0.0587903
-0.0779719
-0.100677
-0.127044
-0.156802
-0.189828
-0.226752
-0.268816
-0.317051
-0.371697
-0.432534
-0.499618
-0.573498
-0.654798
-0.744057
-0.0433878
-0.0420672
-0.0423552
-0.0450767
-0.0506171
-0.0590953
-0.0703853
-0.0843295
-0.101073
-0.121159
-0.145115
-0.172917
-0.204105
-0.238566
-0.277109
-0.321046
-0.371243
-0.427807
-0.490696
-0.560306
-0.637283
-0.722056
-0.815125
-0.0798409
-0.0789227
-0.079421
-0.0825424
-0.0886491
-0.0977671
-0.109659
-0.124168
-0.141579
-0.162576
-0.187653
-0.216614
-0.248911
-0.284566
-0.324559
-0.370156
-0.42203
-0.48029
-0.54519
-0.61738
-0.697446
-0.785695
-0.882854
-0.114723
-0.114239
-0.114954
-0.118474
-0.125087
-0.134763
-0.147192
-0.162224
-0.180239
-0.201987
-0.227888
-0.257633
-0.290714
-0.327352
-0.36862
-0.415623
-0.468868
-0.528601
-0.5954
-0.670021
-0.752947
-0.844565
-0.945973
-0.147971
-0.147946
-0.148903
-0.152829
-0.1599
-0.170056
-0.182932
-0.198369
-0.21681
-0.239031
-0.265397
-0.295573
-0.329193
-0.366655
-0.408996
-0.457094
-0.51137
-0.572299
-0.640705
-0.717339
-0.802668
-0.897353
-1.00281
-0.179547
-0.179961
-0.181176
-0.185482
-0.192939
-0.20347
-0.216656
-0.23233
-0.250988
-0.273429
-0.299981
-0.330345
-0.364309
-0.402359
-0.445394
-0.49409
-0.548924
-0.610636
-0.68017
-0.758217
-0.845375
-0.942641
-1.05159
-0.209432
-0.210219
-0.211668
-0.216289
-0.224016
-0.234782
-0.248115
-0.263869
-0.282601
-0.305111
-0.33168
-0.362044
-0.396084
-0.434278
-0.477366
-0.525961
-0.580746
-0.642689
-0.712707
-0.791434
-0.87972
-0.978868
-1.09045
-0.237572
-0.238693
-0.240289
-0.245155
-0.253023
-0.263878
-0.277225
-0.292962
-0.311688
-0.334149
-0.360549
-0.390624
-0.4243
-0.462005
-0.504395
-0.552189
-0.606335
-0.6679
-0.737632
-0.81614
-0.904593
-1.00452
-1.11746
-0.263873
-0.265407
-0.267008
-0.272075
-0.279963
-0.290794
-0.304067
-0.31972
-0.33833
-0.360527
-0.38642
-0.415759
-0.448521
-0.485109
-0.52619
-0.572658
-0.625655
-0.68616
-0.754682
-0.831875
-0.919214
-1.01836
-1.1309
-0.288281
-0.290472
-0.29191
-0.297168
-0.30495
-0.315646
-0.328742
-0.344172
-0.362426
-0.383993
-0.408932
-0.437074
-0.468473
-0.503528
-0.542909
-0.587622
-0.638848
-0.697376
-0.763545
-0.838142
-0.922864
-1.01937
-1.12948
-0.310893
-0.314084
-0.31517
-0.320649
-0.328157
-0.338572
-0.3513
-0.366235
-0.38376
-0.404278
-0.42788
-0.454523
-0.484326
-0.517618
-0.554989
-0.597419
-0.646016
-0.701423
-0.763965
-0.834591
-0.915091
-1.00701
-1.11251
-0.331923
-0.33645
-0.336836
-0.342691
-0.349731
-0.359706
-0.371818
-0.385919
-0.402348
-0.421495
-0.443521
-0.468482
-0.496486
-0.52773
-0.56266
-0.602164
-0.64724
-0.698445
-0.756176
-0.821408
-0.896002
-0.981477
-1.0801
-0.351246
-0.357952
-0.356547
-0.363352
-0.369782
-0.379209
-0.390484
-0.403489
-0.418595
-0.436196
-0.456468
-0.479474
-0.50528
-0.533981
-0.565926
-0.601891
-0.642711
-0.68883
-0.740648
-0.799233
-0.866288
-0.94341
-1.03276
-0.367783
-0.379458
-0.37375
-0.382962
-0.388524
-0.397277
-0.40753
-0.419287
-0.432975
-0.448923
-0.467218
-0.48789
-0.511007
-0.536665
-0.565142
-0.597028
-0.63292
-0.673139
-0.718101
-0.768885
-0.827081
-0.894108
-0.971744
-0.380493
-0.401431
-0.389067
-0.402344
-0.406189
-0.414045
-0.423099
-0.433498
-0.445689
-0.459855
-0.475952
-0.494003
-0.514142
-0.536462
-0.561094
-0.588361
-0.618641
-0.652221
-0.689581
-0.731736
-0.779986
-0.835346
-0.899128
-0.39107
-0.42252
-0.404716
-0.420626
-0.422798
-0.429659
-0.437381
-0.446307
-0.456877
-0.469107
-0.482849
-0.498146
-0.515166
-0.533931
-0.554375
-0.576579
-0.600791
-0.627287
-0.656523
-0.689309
-0.726593
-0.769008
-0.817449
-0.400407
-0.445211
-0.419036
-0.438215
-0.438961
-0.444649
-0.450912
-0.458239
-0.467028
-0.477165
-0.488421
-0.50083
-0.514547
-0.52953
-0.545567
-0.562551
-0.580575
-0.599831
-0.620645
-0.643559
-0.669178
-0.697823
-0.729909
-0.399947
-0.478268
-0.433843
-0.455694
-0.456192
-0.459844
-0.464286
-0.469818
-0.476678
-0.484615
-0.493305
-0.502744
-0.513075
-0.524207
-0.535814
-0.547637
-0.559625
-0.571847
-0.58441
-0.597493
-0.61134
-0.626022
-0.641535
-0.367241
-0.539128
-0.460148
-0.47517
-0.474182
-0.475139
-0.47749
-0.481088
-0.485878
-0.491518
-0.497658
-0.504216
-0.511228
-0.518531
-0.525761
-0.532589
-0.538835
-0.544339
-0.548893
-0.552364
-0.554793
-0.556213
-0.556781
-0.306241
-0.610805
-0.501739
-0.496754
-0.492136
-0.490667
-0.491108
-0.492741
-0.49523
-0.49832
-0.501786
-0.505409
-0.508961
-0.512189
-0.514804
-0.516411
-0.516586
-0.514867
-0.510796
-0.503962
-0.494097
-0.481262
-0.466056
466.424
526.201
645.451
701.326
887.44
873.939
866.458
848.369
981.869
961.159
946.586
938.131
993.873
989.255
989.342
991.188
1044.49
1043.44
1044.57
1048.24
164.825
156.787
154.105
248.82
-0.671251
-0.767616
-0.78282
-0.806176
-0.0466615
-0.105496
-0.165396
-0.225723
-0.235446
-0.312549
-0.370964
-0.415645
-0.186248
-0.232529
-0.284952
-0.339729
-0.183113
-0.234367
-0.284156
-0.333225
-0.187322
-0.233044
-0.278503
-0.324596
-0.204074
-0.246488
-0.289165
-0.332965
-0.232085
-0.272472
-0.313525
-0.35592
-0.270929
-0.310314
-0.350617
-0.392307
-0.319288
-0.358451
-0.398709
-0.440385
-0.375857
-0.415301
-0.456096
-0.498498
-0.4398
-0.480105
-0.522041
-0.565769
-0.510003
-0.551749
-0.595354
-0.640898
-0.584795
-0.628297
-0.673847
-0.721505
-0.662196
-0.707556
-0.755205
-0.805145
-0.740044
-0.787401
-0.83739
-0.889925
-0.816595
-0.866301
-0.919122
-0.974696
-0.891076
-0.943611
-0.99979
-1.05871
-0.962798
-1.01849
-1.07823
-1.14063
-1.0301
-1.08891
-1.15201
-1.21787
-1.09076
-1.15237
-1.21855
-1.28777
-1.14285
-1.20703
-1.27613
-1.34847
-1.18446
-1.2509
-1.32253
-1.3975
-1.21322
-1.28123
-1.35473
-1.43175
-1.22718
-1.29576
-1.37008
-1.44831
-1.22472
-1.29273
-1.36665
-1.44485
-1.20479
-1.27102
-1.34322
-1.41966
-1.16719
-1.23001
-1.29858
-1.37091
-1.11211
-1.16949
-1.2321
-1.29794
-1.04083
-1.09074
-1.14522
-1.2025
-0.955937
-0.996873
-1.04146
-1.08819
-0.860678
-0.891554
-0.924855
-0.959337
-0.75842
-0.778479
-0.799811
-0.82142
-0.654826
-0.664045
-0.673696
-0.683027
-0.557513
-0.557664
-0.557291
-0.555701
-0.454581
-0.446936
-0.438704
-0.429255
668.51
331.439
276.822
292.375
288.449
274.199
271.354
271.555
271.964
272.084
272.075
272.033
271.959
271.812
271.63
271.436
271.255
271.169
271.196
823.261
827.301
847.004
845.165
751.838
554.438
458.709
398.228
326.519
277.51
272.27
272.151
272.009
271.798
271.52
271.207
270.884
270.707
270.738
926.342
937.373
942.13
945.643
952.042
964.945
979.28
985.454
875.907
629.877
400.867
285.496
272.129
271.705
271.359
270.866
270.264
269.889
269.9
992.264
990.822
998.445
1004.4
1012.56
1027.06
1044.89
1062.03
1080.05
1102.26
1074.46
743.519
349.251
271.81
271.075
270.396
269.267
268.445
268.356
1053.5
1055.69
1063.32
1068.7
1074.86
1086.23
1101.48
1118.25
1138.21
1164.79
1196.19
1231.26
1025.17
433.957
270.852
269.364
267.519
265.887
265.515
444.047
539.941
692.785
795.037
793.836
831.799
938.4
1073.76
1168.13
1219.69
1252.42
1294.7
1342.58
1119.15
413.309
266.67
263.916
261.195
260.355
-0.911124
-1.07187
-1.18063
-1.21603
-1.27504
-1.06468
66.7262
232.703
454.576
790.303
1176.76
1353.42
1409.3
1464.77
983.308
297.114
255.857
252.307
251.245
-0.339457
-0.461018
-0.551159
-0.608644
-0.628032
-0.580447
-0.632208
-0.874862
-1.02
-0.709216
226.674
1051.23
1471.75
1531.17
1431.36
523.144
238.571
235.303
235.822
-0.47282
-0.582716
-0.673794
-0.733318
-0.74775
-0.710992
-0.682943
-0.656411
-0.574346
-0.420794
-0.499459
129.005
1143.43
1600.82
1602.15
749.79
209.791
208.49
212.296
-0.434426
-0.550947
-0.634678
-0.688012
-0.711377
-0.703478
-0.689112
-0.670311
-0.613433
-0.492209
-0.355669
-0.610416
513.115
1600.94
1660.13
892.586
182.71
175.682
181.388
-0.414874
-0.517303
-0.599471
-0.658
-0.690771
-0.696953
-0.684193
-0.651235
-0.584773
-0.479915
-0.338279
-0.31859
170.005
1421.9
1704.58
971.469
153.055
139.037
145.509
-0.402573
-0.50331
-0.587495
-0.651131
-0.691081
-0.704809
-0.692661
-0.6525
-0.581064
-0.483533
-0.357003
-0.294803
25.9095
1206.23
1754.42
1061.69
132.002
98.5363
107.461
-0.407752
-0.507258
-0.593714
-0.662533
-0.709329
-0.729566
-0.71972
-0.676679
-0.600222
-0.498913
-0.369435
-0.238415
-0.161533
1068.63
1774.6
1066.33
97.1616
58.6709
73.7249
-0.428538
-0.527442
-0.616539
-0.690846
-0.744681
-0.771466
-0.764683
-0.719376
-0.635529
-0.524903
-0.377765
-0.219396
-0.378241
1016.58
1795.09
986.431
58.7287
33.5135
51.6779
-0.463783
-0.563269
-0.655832
-0.736046
-0.797125
-0.830116
-0.826509
-0.779029
-0.68714
-0.563899
-0.391784
-0.207356
-0.555977
1047.61
1775.59
762.961
24.3765
26.5792
39.739
-0.51199
-0.613605
-0.710858
-0.797515
-0.865866
-0.905025
-0.903993
-0.851997
-0.749931
-0.616504
-0.415839
-0.26897
98.8967
1262.45
1444.03
415.884
16.3517
26.8379
32.49
-0.571681
-0.676975
-0.779967
-0.873784
-0.949157
-0.994018
-0.994506
-0.929127
-0.81812
-0.681643
-0.464824
-0.504921
227.541
1391.37
1137.41
139.336
13.5839
25.8133
24.9169
-0.641465
-0.751611
-0.860976
-0.962057
-1.04417
-1.0933
-1.08754
-1.01107
-0.893633
-0.739228
-0.474747
-0.80318
503.471
1486.98
1000.93
59.435
15.309
20.9789
16.9885
-0.719705
-0.835075
-0.950958
-1.05893
-1.14663
-1.19764
-1.17451
-1.09795
-0.968303
-0.798622
-0.577312
157.24
1245.65
1557.69
983.742
39.6173
13.7873
14.4896
11.3944
-0.804002
-0.924887
-1.04662
-1.16018
-1.25147
-1.29661
-1.25678
-1.17965
-1.03544
-0.857198
-0.521132
468.171
1527.96
1634.85
796.26
12.4415
9.3179
8.67625
7.89748
-0.891619
-1.01836
-1.14539
-1.26191
-1.35419
-1.38691
-1.33232
-1.2363
-1.05893
-0.872371
-0.491521
256.107
904.246
890.476
388.549
4.19433
7.01046
5.37432
5.85754
-0.980768
-1.1134
-1.24575
-1.36491
-1.45275
-1.46222
-1.38123
-1.24271
-1.06499
-0.822663
1.84825
3.93053
9.57802
29.3224
71.8648
8.07207
4.45048
3.11517
4.37557
-1.07043
-1.20922
-1.3477
-1.47128
-1.52545
-1.5327
-1.45189
-1.31058
-1.11236
-0.686864
-0.211737
3.91502
4.73947
3.15845
17.1149
7.29235
2.60017
2.32559
3.32432
-1.15969
-1.30573
-1.45238
-1.58414
-1.62636
-1.63575
-1.59232
-1.50587
-1.30209
21.3215
31.8555
16.3158
5.10002
5.30195
9.30967
5.77944
2.78254
2.81367
3.00574
-1.24713
-1.40222
-1.5602
-1.7067
-1.79053
-1.806
-1.81483
-1.7977
-1.35886
393.986
512.811
88.6631
6.59363
7.75107
5.90245
7.1851
4.03132
3.56948
3.15856
-1.33043
-1.49631
-1.66862
-1.83466
-1.97335
-1.82668
-2.09919
-2.16078
168.309
683.239
687.302
346.015
9.61253
8.84533
7.52486
7.15651
5.08607
4.30368
3.31695
-1.40663
-1.58428
-1.77269
-1.95906
-2.12583
-1.94832
-2.28672
-2.31193
167.019
709.851
712.316
647.364
59.0616
9.49541
8.19693
6.46887
5.37488
4.41679
3.16936
-1.47315
-1.66232
-1.86729
-2.07612
-2.27491
-2.2387
-2.05552
-2.63361
-3.1015
648.104
739.29
743.612
211.546
8.92462
7.60005
5.95319
4.77492
3.87824
2.6906
-1.52729
-1.72716
-1.94829
-2.1811
-2.41219
-2.6143
-0.902519
-2.78624
-3.03251
452.394
765.155
765.283
351.539
7.47166
6.30542
4.67031
3.51247
2.76356
1.92247
-1.5658
-1.77529
-2.01158
-2.26764
-2.5306
-2.76898
-1.12989
-1.92552
-2.8741
255.872
786.812
784.301
507.391
9.28804
5.06668
2.7086
1.745
1.28458
0.934555
-1.58518
-1.80244
-2.05218
-2.33051
-2.62936
-2.9261
-2.82968
4.40348
-3.37153
69.3717
803.94
801.119
803.835
112.973
2.52992
-0.156196
-0.485025
-0.472889
-0.190523
-1.58225
-1.80388
-2.06358
-2.3612
-2.69491
-3.05065
-2.98531
4.3239
2.15089
1.16906
707.073
822.357
821.444
333.501
-3.70884
-4.05513
-2.99455
-2.28197
-1.32146
-1.55418
-1.77491
-2.03864
-2.34887
-2.70901
-3.11217
-3.43169
-2.10549
3.91767
2.37762
394.886
850.882
847.763
318.584
-10.5292
-7.17076
-5.19806
-3.78284
-2.25735
-1.49859
-1.71169
-1.97155
-2.28419
-2.65736
-3.09314
-3.57845
-4.12037
-0.075956
4.43622
13.7188
527.261
519.144
145.558
-12.0746
-8.76052
-6.44402
-4.56856
-2.81544
-1.41477
-1.61282
-1.85904
-2.16142
-2.53042
-2.97508
-3.49271
-3.63909
-4.15761
-3.71693
-5.94878
2.75353
-0.31296
-8.79476
-12.1536
-8.82609
-6.49498
-4.49315
-2.94101
-1.30436
-1.4796
-1.70131
-1.97878
-2.32331
-2.747
-3.25439
-3.9046
-4.59528
-4.97147
-5.76119
-7.96784
-9.19799
-11.0395
-10.3685
-7.53624
-5.59406
-3.82204
-2.74239
-1.17112
-1.31589
-1.50233
-1.7399
-2.0388
-2.41139
-2.87422
-3.44755
-4.04144
-4.88355
-5.87958
-7.01135
-7.93597
-8.5066
-7.51406
-5.68385
-4.26139
-2.95043
-2.39395
-1.0203
-1.12849
-1.27061
-1.45558
-1.69151
-1.98619
-2.35111
-2.79917
-3.36723
-4.02889
-4.74519
-5.36627
-5.84218
-5.866
-5.05665
-3.90049
-2.95615
-2.15255
-2.01862
-0.859257
-0.927811
-1.02043
-1.14558
-1.30951
-1.51264
-1.75711
-2.07147
-2.45831
-2.88978
-3.31526
-3.64824
-3.80824
-3.65705
-3.10793
-2.41686
-1.86939
-1.50592
-1.6417
-0.698846
-0.728025
-0.771365
-0.837385
-0.929675
-1.03364
-1.1307
-1.30001
-1.54226
-1.79409
-2.02209
-2.17519
-2.1999
-2.04291
-1.70197
-1.3194
-1.05812
-0.999499
-1.24857
-0.550923
-0.54273
-0.537021
-0.541682
-0.555798
-0.536916
-0.419767
-0.460094
-0.663954
-0.832174
-0.964777
-1.0414
-1.03759
-0.934009
-0.742436
-0.544252
-0.437909
-0.514725
-0.781455
-0.410109
-0.372987
-0.320316
-0.249666
-0.152985
0.0177803
0.341253
0.344164
0.0848981
-0.0617734
-0.162068
-0.241114
-0.296513
-0.321161
-0.317601
-0.312217
-0.325504
-0.352854
-0.372718
)
;

boundaryField
{
    leftWall
    {
        type            fixedFluxPressure;
        gradient        uniform 0;
        value           nonuniform List<scalar> 
50
(
865.422
864.749
863.229
861.545
859.877
858.124
856.286
854.476
851.771
848.476
798.669
180.673
0.493118
0.703886
0.662014
0.652726
0.618658
0.580417
0.537606
0.491661
0.443825
0.395132
0.346434
0.298331
0.251194
0.205212
0.160467
0.116999
0.0748341
0.034009
-0.00541958
-0.0433878
-0.0798409
-0.114723
-0.147971
-0.179547
-0.209432
-0.237572
-0.263873
-0.288281
-0.310893
-0.331923
-0.351246
-0.367783
-0.380493
-0.39107
-0.400407
-0.399947
-0.367241
-0.306241
)
;
    }
    rightWall
    {
        type            fixedFluxPressure;
        gradient        uniform 0;
        value           nonuniform List<scalar> 
50
(
271.644
271.643
271.633
271.613
271.581
271.535
271.471
271.383
271.196
270.738
269.9
268.356
265.515
260.355
251.245
235.822
212.296
181.388
145.509
107.461
73.7249
51.6779
39.739
32.49
24.9169
16.9885
11.3944
7.89748
5.85754
4.37557
3.32432
3.00574
3.15856
3.31695
3.16936
2.6906
1.92247
0.934555
-0.190523
-1.32146
-2.25735
-2.81544
-2.94101
-2.74239
-2.39395
-2.01862
-1.6417
-1.24857
-0.781455
-0.372718
)
;
    }
    lowerWall
    {
        type            fixedFluxPressure;
        gradient        uniform 0;
        value           nonuniform List<scalar> 
62
(
865.422
866.19
875.689
887.953
899.055
908.155
915.405
921.481
927.075
932.753
939.009
946.339
955.334
966.791
981.882
1002.38
1029.96
1065.72
1108.79
1153.51
1191.99
1192.83
1231.2
1231.2
1232.52
1241.64
1258.37
1272.56
1273.93
1246.47
1169.18
466.424
526.201
645.451
701.326
271.079
271.079
271.074
271.065
271.052
271.037
271.013
272.178
271.079
271.083
271.101
271.166
271.273
271.392
271.518
271.655
271.79
271.892
271.942
271.939
271.893
271.824
271.753
271.695
271.658
271.642
271.644
)
;
    }
    atmosphere
    {
        type            totalPressure;
        rho             rho;
        psi             none;
        gamma           1;
        p0              uniform 0;
        value           nonuniform List<scalar> 
46
(
-0.352719
-0.550568
-0.508725
-0.504136
-0.49993
-0.498188
-0.497997
-0.498718
-0.499986
-0.501671
-0.503656
-0.505658
-0.507297
-0.508258
-0.508266
-0.506928
-0.503689
-0.497903
-0.488936
-0.476175
-0.459068
-0.437334
-0.411218
-0.389693
-0.376202
-0.363514
-0.351271
-0.329421
-0.285586
-0.228564
-0.162786
-0.0980464
-0.0462452
-0.0191539
0
0
0
0
0
0
0
0
0
0
0
0
)
;
    }
    defaultFaces
    {
        type            empty;
    }
}


// ************************************************************************* //
