/*--------------------------------*- C++ -*----------------------------------*\
| =========                 |                                                 |
| \\      /  F ield         | OpenFOAM: The Open Source CFD Toolbox           |
|  \\    /   O peration     | Version:  v2012                                 |
|   \\  /    A nd           | Website:  www.openfoam.com                      |
|    \\/     M anipulation  |                                                 |
\*---------------------------------------------------------------------------*/
FoamFile
{
    version     2.0;
    format      ascii;
    class       surfaceScalarField;
    location    "0.4";
    object      phi;
}
// * * * * * * * * * * * * * * * * * * * * * * * * * * * * * * * * * * * * * //

dimensions      [0 3 -1 0 0 0 0];
oriented        oriented;


internalField   nonuniform List<scalar> 
4432
(
-5.29432e-06
5.29432e-06
-5.66705e-06
3.72725e-07
-2.43527e-06
-3.23178e-06
1.98762e-06
-4.42288e-06
6.71759e-06
-4.72998e-06
1.13005e-05
-4.58289e-06
1.55797e-05
-4.27924e-06
1.95294e-05
-3.94973e-06
2.31653e-05
-3.6359e-06
2.65054e-05
-3.34005e-06
2.95505e-05
-3.04513e-06
3.22713e-05
-2.72075e-06
3.45957e-05
-2.32447e-06
3.63839e-05
-1.78819e-06
3.73849e-05
-1.00093e-06
3.70638e-05
3.21122e-07
3.46325e-05
2.43128e-06
2.9444e-05
5.18847e-06
2.10097e-05
8.43429e-06
9.62741e-06
1.13823e-05
-3.47868e-06
1.31061e-05
-1.14677e-05
7.98898e-06
-1.14677e-05
-3.18873e-06
8.48305e-06
-1.81488e-06
-1.00113e-06
1.39568e-06
-6.44234e-06
5.55118e-06
-8.57838e-06
9.95819e-06
-9.13698e-06
1.42854e-05
-8.91007e-06
1.83879e-05
-8.38178e-06
2.22206e-05
-7.78241e-06
2.57791e-05
-7.19438e-06
2.90648e-05
-6.62583e-06
3.2066e-05
-6.04631e-06
3.47451e-05
-5.39979e-06
3.70281e-05
-4.60748e-06
3.87944e-05
-3.55454e-06
3.98733e-05
-2.07977e-06
4.00871e-05
1.07262e-07
3.91504e-05
3.36801e-06
3.63397e-05
7.99918e-06
3.07263e-05
1.40477e-05
2.15497e-05
2.05589e-05
9.59762e-06
2.50582e-05
8.80059e-08
1.74986e-05
-1.13796e-05
-1.03933e-06
9.52238e-06
8.85825e-07
-2.92628e-06
4.11188e-06
-9.6684e-06
8.05476e-06
-1.25213e-05
1.2188e-05
-1.32702e-05
1.62556e-05
-1.29777e-05
2.01393e-05
-1.22655e-05
2.37956e-05
-1.14388e-05
2.72122e-05
-1.0611e-05
3.03802e-05
-9.79384e-06
3.32793e-05
-8.9454e-06
3.58676e-05
-7.98801e-06
3.80727e-05
-6.81262e-06
3.97852e-05
-5.26701e-06
4.08486e-05
-3.1432e-06
4.10992e-05
-1.43372e-07
4.03325e-05
4.13479e-06
3.82299e-05
1.01018e-05
3.43073e-05
1.79702e-05
2.7921e-05
2.69452e-05
1.88083e-05
3.4171e-05
8.25076e-06
2.80561e-05
-3.12889e-06
7.65109e-07
8.75727e-06
3.01735e-06
-5.17852e-06
6.34689e-06
-1.29979e-05
1.0156e-05
-1.63303e-05
1.40679e-05
-1.71822e-05
1.78988e-05
-1.68085e-05
2.15669e-05
-1.59336e-05
2.50402e-05
-1.49121e-05
2.83042e-05
-1.3875e-05
3.13437e-05
-1.28333e-05
3.41323e-05
-1.17341e-05
3.66259e-05
-1.04815e-05
3.87553e-05
-8.94202e-06
4.04221e-05
-6.93383e-06
4.14957e-05
-4.21676e-06
4.18303e-05
-4.78002e-07
4.12765e-05
4.68856e-06
3.96622e-05
1.17161e-05
3.67475e-05
2.08849e-05
3.2081e-05
3.16117e-05
2.49519e-05
4.13001e-05
1.44241e-05
3.8584e-05
1.12952e-05
1.95393e-06
6.80334e-06
4.73228e-06
-7.95687e-06
8.23347e-06
-1.64991e-05
1.19827e-05
-2.00796e-05
1.57182e-05
-2.09177e-05
1.93358e-05
-2.04261e-05
2.27984e-05
-1.93963e-05
2.60913e-05
-1.82049e-05
2.92018e-05
-1.69855e-05
3.2111e-05
-1.57425e-05
3.47889e-05
-1.4412e-05
3.71904e-05
-1.2883e-05
3.92512e-05
-1.10028e-05
4.08851e-05
-8.56773e-06
4.19846e-05
-5.31629e-06
4.24335e-05
-9.26918e-07
4.21278e-05
4.99423e-06
4.09726e-05
1.28713e-05
3.88412e-05
2.30163e-05
3.53764e-05
3.50765e-05
2.96677e-05
4.70088e-05
1.93257e-05
4.89259e-05
3.06209e-05
2.68902e-06
4.11432e-06
6.09162e-06
-1.13595e-05
9.8417e-06
-2.02492e-05
1.35809e-05
-2.38189e-05
1.71687e-05
-2.45055e-05
2.059e-05
-2.38473e-05
2.38574e-05
-2.26637e-05
2.69758e-05
-2.13233e-05
2.99363e-05
-1.9946e-05
3.27177e-05
-1.85239e-05
3.52873e-05
-1.69816e-05
3.76008e-05
-1.51966e-05
3.96e-05
-1.3002e-05
4.12117e-05
-1.01794e-05
4.23502e-05
-6.45475e-06
4.29301e-05
-1.50684e-06
4.28889e-05
5.0354e-06
4.21892e-05
1.35711e-05
4.07775e-05
2.44279e-05
3.83585e-05
3.74954e-05
3.39355e-05
5.14318e-05
2.40486e-05
5.88128e-05
5.46695e-05
3.2005e-06
9.13822e-07
7.21912e-06
-1.53781e-05
1.12479e-05
-2.4278e-05
1.49918e-05
-2.75628e-05
1.84378e-05
-2.79514e-05
2.16689e-05
-2.70785e-05
2.47487e-05
-2.57435e-05
2.76997e-05
-2.42743e-05
3.05155e-05
-2.27618e-05
3.31728e-05
-2.11812e-05
3.56375e-05
-1.94463e-05
3.78671e-05
-1.74261e-05
3.98103e-05
-1.49452e-05
4.14073e-05
-1.17764e-05
4.25932e-05
-7.64072e-06
4.33126e-05
-2.22619e-06
4.35427e-05
4.80533e-06
4.33009e-05
1.38128e-05
4.26117e-05
2.51172e-05
4.12821e-05
3.8825e-05
3.84309e-05
5.4283e-05
2.95842e-05
6.76596e-05
8.42537e-05
3.64753e-06
-2.73371e-06
8.25293e-06
-1.99835e-05
1.25432e-05
-2.85683e-05
1.62604e-05
-3.12799e-05
1.95426e-05
-3.12336e-05
2.25785e-05
-3.01144e-05
2.54755e-05
-2.86405e-05
2.82667e-05
-2.70656e-05
3.09448e-05
-2.54399e-05
3.34834e-05
-2.37198e-05
3.5847e-05
-2.18099e-05
3.79958e-05
-1.95749e-05
3.98866e-05
-1.68359e-05
4.14728e-05
-1.33626e-05
4.27097e-05
-8.87761e-06
4.35692e-05
-3.08564e-06
4.40673e-05
4.30724e-06
4.42788e-05
1.36012e-05
4.43283e-05
2.50677e-05
4.42216e-05
3.89318e-05
4.34337e-05
5.50708e-05
3.66183e-05
7.4475e-05
0.000120872
-1.72234e-06
1.72234e-06
-1.39293e-05
1.22069e-05
-2.47625e-05
1.08332e-05
-2.97146e-05
4.95205e-06
-2.93273e-05
-3.87266e-07
-2.56585e-05
-3.66883e-06
-1.88675e-05
-6.791e-06
-8.81782e-06
-1.00497e-05
3.38717e-06
-1.2205e-05
1.61624e-05
-1.27752e-05
2.80114e-05
-1.1849e-05
3.76013e-05
-9.58974e-06
4.3651e-05
-6.04978e-06
4.48304e-05
-1.17937e-06
4.05215e-05
4.30888e-06
3.17833e-05
8.73821e-06
2.03301e-05
1.14533e-05
8.55049e-06
1.17795e-05
8.55045e-06
-6.12783e-06
7.85016e-06
-1.78401e-05
2.39191e-05
-2.71659e-05
2.0159e-05
-2.99433e-05
7.72934e-06
-2.84759e-05
-1.85461e-06
-2.45787e-05
-7.56605e-06
-1.79256e-05
-1.34441e-05
-8.13926e-06
-1.9836e-05
3.77263e-06
-2.41169e-05
1.61947e-05
-2.51971e-05
2.77752e-05
-2.34295e-05
3.73012e-05
-1.91157e-05
4.36466e-05
-1.23952e-05
4.6085e-05
-3.61776e-06
4.40077e-05
6.38623e-06
3.67867e-05
1.59592e-05
2.51956e-05
2.30444e-05
1.17244e-05
2.52508e-05
2.02748e-05
-7.84817e-06
1.56983e-05
-1.79542e-05
3.40251e-05
-2.64655e-05
2.86703e-05
-2.8638e-05
9.90177e-06
-2.65249e-05
-3.96774e-06
-2.25458e-05
-1.15451e-05
-1.62611e-05
-1.97288e-05
-6.81631e-06
-2.92808e-05
4.86411e-06
-3.57973e-05
1.70093e-05
-3.73423e-05
2.83258e-05
-3.4746e-05
3.7701e-05
-2.84908e-05
4.40626e-05
-1.87569e-05
4.65374e-05
-6.09251e-06
4.44774e-05
8.44634e-06
3.75087e-05
2.29278e-05
2.62499e-05
3.43032e-05
1.28152e-05
3.86856e-05
3.309e-05
-7.68971e-06
2.3388e-05
-1.66287e-05
4.2964e-05
-2.51467e-05
3.71884e-05
-2.64544e-05
1.12095e-05
-2.3188e-05
-7.23424e-06
-1.90784e-05
-1.56547e-05
-1.34127e-05
-2.53945e-05
-4.49115e-06
-3.82024e-05
6.93684e-06
-4.72253e-05
1.88236e-05
-4.9229e-05
2.99075e-05
-4.58298e-05
3.91587e-05
-3.7742e-05
4.55127e-05
-2.51108e-05
4.80366e-05
-8.61637e-06
4.60182e-05
1.04647e-05
3.90702e-05
2.98758e-05
2.76926e-05
4.56808e-05
1.38205e-05
5.25577e-05
4.69105e-05
-5.9345e-06
2.93225e-05
-1.36061e-05
5.06357e-05
-2.23318e-05
4.59141e-05
-2.20244e-05
1.09021e-05
-1.68409e-05
-1.24178e-05
-1.24627e-05
-2.00329e-05
-7.83242e-06
-3.00248e-05
1.03756e-07
-4.61386e-05
1.07818e-05
-5.79033e-05
2.21225e-05
-6.05697e-05
3.27965e-05
-5.65039e-05
4.18414e-05
-4.67868e-05
4.81412e-05
-3.14106e-05
5.06629e-05
-1.11381e-05
4.86287e-05
1.2499e-05
4.15603e-05
3.69442e-05
2.97609e-05
5.74803e-05
1.4997e-05
6.73215e-05
6.19075e-05
-2.64574e-06
3.19683e-05
-7.91402e-06
5.5904e-05
-1.55664e-05
5.35664e-05
-1.22004e-05
7.5361e-06
-4.81987e-06
-1.97983e-05
-3.44607e-07
-2.45082e-05
3.02893e-06
-3.33983e-05
8.58011e-06
-5.16898e-05
1.76574e-05
-6.69805e-05
2.76496e-05
-7.05619e-05
3.73987e-05
-6.6253e-05
4.59597e-05
-5.53477e-05
5.20823e-05
-3.75332e-05
5.45207e-05
-1.35765e-05
5.23616e-05
1.46582e-05
4.49831e-05
4.43227e-05
3.24735e-05
6.99899e-05
1.64405e-05
8.33546e-05
7.8348e-05
4.57401e-06
2.73943e-05
4.17196e-06
5.63062e-05
2.50393e-06
5.52344e-05
1.01242e-05
-8.41425e-08
1.76249e-05
-2.72989e-05
2.01719e-05
-2.70552e-05
2.1135e-05
-3.43612e-05
2.35716e-05
-5.41265e-05
2.92376e-05
-7.26465e-05
3.63361e-05
-7.76604e-05
4.41686e-05
-7.40855e-05
5.17304e-05
-6.29095e-05
5.74525e-05
-4.32553e-05
5.97103e-05
-1.58344e-05
5.73315e-05
1.7037e-05
4.94599e-05
5.21942e-05
3.59491e-05
8.35006e-05
1.82829e-05
0.000101021
9.6631e-05
2.6732e-05
6.62293e-07
3.41198e-05
4.89184e-05
4.60406e-05
4.33135e-05
5.97926e-05
-1.38362e-05
5.62224e-05
-2.37287e-05
4.93429e-05
-2.01758e-05
4.69828e-05
-3.20009e-05
4.63271e-05
-5.34709e-05
4.70142e-05
-7.33335e-05
4.89432e-05
-7.95895e-05
5.33107e-05
-7.8453e-05
5.92168e-05
-6.88156e-05
6.42926e-05
-4.8331e-05
6.6296e-05
-1.78379e-05
6.36688e-05
1.96641e-05
5.51812e-05
6.06818e-05
4.039e-05
9.82918e-05
2.06713e-05
0.00012074
0.000117302
9.49055e-06
-1.22243e-05
2.13675e-05
-3.18605e-05
3.09659e-05
-3.81666e-05
3.83827e-05
-3.86968e-05
4.46426e-05
-3.74935e-05
5.0424e-05
-3.58957e-05
5.60132e-05
-3.42297e-05
6.14671e-05
-3.25194e-05
6.67476e-05
-3.07204e-05
7.1784e-05
-2.87562e-05
7.64976e-05
-2.65235e-05
8.08148e-05
-2.38921e-05
8.46719e-05
-2.0693e-05
8.80169e-05
-1.67076e-05
9.08155e-05
-1.16762e-05
9.30867e-05
-5.35684e-06
9.49867e-05
2.4073e-06
9.68443e-05
1.17436e-05
9.93106e-05
2.26014e-05
0.000103283
3.49591e-05
0.000110003
4.83516e-05
0.000122975
6.15028e-05
7.99602e-05
0.000163887
1.37054e-05
-2.59297e-05
2.85032e-05
-4.66583e-05
3.6978e-05
-4.66414e-05
4.25218e-05
-4.42406e-05
4.73349e-05
-4.23066e-05
5.21574e-05
-4.07182e-05
5.70813e-05
-3.91536e-05
6.20171e-05
-3.74553e-05
6.68535e-05
-3.55568e-05
7.14873e-05
-3.33899e-05
7.58321e-05
-3.08683e-05
7.98288e-05
-2.78888e-05
8.34544e-05
-2.43186e-05
8.6721e-05
-1.99743e-05
8.96669e-05
-1.46221e-05
9.23719e-05
-8.06175e-06
9.51303e-05
-3.51135e-07
9.82624e-05
8.61148e-06
0.000102616
1.82474e-05
0.00010923
2.83459e-05
0.000119784
3.7797e-05
0.000136321
4.49663e-05
5.18087e-05
0.000164472
2.29206e-05
-4.88503e-05
3.83322e-05
-6.20699e-05
4.17434e-05
-5.00526e-05
4.43067e-05
-4.68038e-05
4.78495e-05
-4.58494e-05
5.21274e-05
-4.49961e-05
5.67212e-05
-4.37475e-05
6.13715e-05
-4.21055e-05
6.59183e-05
-4.01037e-05
7.02434e-05
-3.7715e-05
7.42588e-05
-3.48837e-05
7.79173e-05
-3.15473e-05
8.12303e-05
-2.76316e-05
8.42803e-05
-2.30243e-05
8.72022e-05
-1.7544e-05
9.01866e-05
-1.10461e-05
9.33999e-05
-3.56447e-06
9.73169e-05
4.6945e-06
0.000102513
1.3051e-05
0.000109369
2.14898e-05
0.00011871
2.84561e-05
0.000131683
3.19939e-05
3.26881e-05
0.000150803
3.98365e-05
-8.86868e-05
4.57197e-05
-6.79532e-05
4.14025e-05
-4.57355e-05
4.25094e-05
-4.79106e-05
4.61138e-05
-4.94538e-05
5.05065e-05
-4.93889e-05
5.50496e-05
-4.82905e-05
5.9535e-05
-4.65909e-05
6.38368e-05
-4.44055e-05
6.78482e-05
-4.17264e-05
7.14918e-05
-3.85273e-05
7.47391e-05
-3.47945e-05
7.76447e-05
-3.05372e-05
8.03859e-05
-2.57655e-05
8.32434e-05
-2.04015e-05
8.65819e-05
-1.43847e-05
9.07117e-05
-7.69423e-06
9.52779e-05
1.28253e-07
0.000101239
7.08982e-06
0.000108246
1.44831e-05
0.000117098
1.96041e-05
0.000128936
2.01558e-05
1.81989e-05
0.000143425
3.00895e-05
-0.000118776
2.94073e-05
-6.72709e-05
3.50673e-05
-5.13954e-05
4.04257e-05
-5.3269e-05
4.5265e-05
-5.42931e-05
4.97137e-05
-5.38375e-05
5.3991e-05
-5.25678e-05
5.8115e-05
-5.07148e-05
6.19973e-05
-4.82878e-05
6.55349e-05
-4.5264e-05
6.86503e-05
-4.16428e-05
7.13042e-05
-3.74484e-05
7.35099e-05
-3.2743e-05
7.53852e-05
-2.76408e-05
7.7279e-05
-2.22953e-05
7.99609e-05
-1.70665e-05
8.41008e-05
-1.18342e-05
9.04571e-05
-6.22809e-06
9.84029e-05
-8.55939e-07
0.000108317
4.56927e-06
0.000119632
8.28889e-06
0.000130964
8.82369e-06
6.84864e-06
0.000142314
-1.28716e-05
-0.000105905
1.03786e-06
-8.11803e-05
1.82287e-05
-6.85863e-05
3.1277e-05
-6.63172e-05
4.24784e-05
-6.54944e-05
5.24234e-05
-6.37825e-05
6.12651e-05
-6.14095e-05
6.9183e-05
-5.86328e-05
7.63279e-05
-5.54327e-05
8.27893e-05
-5.17254e-05
8.85874e-05
-4.74409e-05
9.36671e-05
-4.25281e-05
9.78818e-05
-3.69577e-05
0.000100956
-3.07147e-05
0.000102423
-2.3763e-05
0.000101481
-1.61247e-05
9.80506e-05
-8.4034e-06
9.40662e-05
-2.24367e-06
9.6458e-05
-3.24774e-06
0.000107425
-6.3975e-06
0.00012238
-6.66615e-06
0.000134613
-3.40922e-06
-3.88162e-06
0.000145343
-1.12641e-05
-9.46406e-05
2.06933e-06
-9.45137e-05
1.86837e-05
-8.52006e-05
3.2701e-05
-8.03344e-05
4.4465e-05
-7.72584e-05
5.49448e-05
-7.42622e-05
6.45831e-05
-7.10479e-05
7.35472e-05
-6.75969e-05
8.19488e-05
-6.38344e-05
8.98799e-05
-5.96564e-05
9.74042e-05
-5.49653e-05
0.000104553
-4.96765e-05
0.000111322
-4.37268e-05
0.000117688
-3.7081e-05
0.000123672
-2.97474e-05
0.000129415
-2.1867e-05
0.00013501
-1.39987e-05
0.000140916
-8.14936e-06
0.000145842
-8.17449e-06
0.000149757
-1.03124e-05
0.000151573
-8.4824e-06
0.000149759
-1.59516e-06
-8.09869e-06
0.000153976
7.03273e-07
-9.53438e-05
9.52162e-06
-0.000103332
2.18373e-05
-9.75163e-05
3.37883e-05
-9.22854e-05
4.47071e-05
-8.81771e-05
5.48832e-05
-8.44384e-05
6.45555e-05
-8.07202e-05
7.3847e-05
-7.68885e-05
8.28479e-05
-7.28353e-05
9.16459e-05
-6.84544e-05
0.00010033
-6.36498e-05
0.000108997
-5.83433e-05
0.000117756
-5.2486e-05
0.000126752
-4.60768e-05
0.000136201
-3.91967e-05
0.000146424
-3.20894e-05
0.000157804
-2.53793e-05
0.000170204
-2.05486e-05
0.000181021
-1.89917e-05
0.000189135
-1.8427e-05
0.000196551
-1.58981e-05
0.00020827
-1.33141e-05
-1.84322e-05
0.000218603
4.14893e-06
-9.94927e-05
1.30727e-05
-0.000112256
2.30463e-05
-0.00010749
3.31174e-05
-0.000102356
4.2915e-05
-9.79747e-05
5.2455e-05
-9.39784e-05
6.18173e-05
-9.00826e-05
7.10649e-05
-8.61361e-05
8.02613e-05
-8.20317e-05
8.94841e-05
-7.76772e-05
9.88298e-05
-7.29955e-05
0.000108418
-6.79318e-05
0.000118398
-6.24657e-05
0.000128953
-5.66315e-05
0.000140307
-5.0551e-05
0.000152708
-4.44903e-05
0.000166292
-3.89639e-05
0.000180536
-3.47919e-05
0.000193992
-3.24486e-05
0.000206512
-3.09462e-05
0.000219885
-2.92712e-05
0.000235491
-2.89206e-05
-3.27609e-05
0.00024982
5.8586e-06
-0.000105351
1.38572e-05
-0.000120254
2.22374e-05
-0.00011587
3.08861e-05
-0.000111005
3.96441e-05
-0.000106733
4.84538e-05
-0.000102788
5.73196e-05
-9.89484e-05
6.62667e-05
-9.50832e-05
7.53392e-05
-9.11042e-05
8.4604e-05
-8.69419e-05
9.4153e-05
-8.25445e-05
0.000104104
-7.78832e-05
0.000114602
-7.29632e-05
0.00012581
-6.78398e-05
0.0001379
-6.26411e-05
0.000151007
-5.75972e-05
0.000165113
-5.30695e-05
0.000179823
-4.95021e-05
0.000194486
-4.71114e-05
0.000209089
-4.5549e-05
0.000224347
-4.45288e-05
0.00024018
-4.47543e-05
-4.71009e-05
0.000254521
6.53669e-06
-0.000111888
1.32387e-05
-0.000126956
2.02771e-05
-0.000122908
2.77708e-05
-0.000118499
3.55876e-05
-0.00011455
4.364e-05
-0.00011084
5.18989e-05
-0.000107207
6.037e-05
-0.000103554
6.90845e-05
-9.98187e-05
7.80993e-05
-9.59567e-05
8.74955e-05
-9.19408e-05
9.73776e-05
-8.77653e-05
0.000107868
-8.34538e-05
0.000119098
-7.90696e-05
0.000131185
-7.47283e-05
0.000144197
-7.06094e-05
0.000158084
-6.6956e-05
0.000172609
-6.4027e-05
0.000187455
-6.19573e-05
0.00020256
-6.06543e-05
0.000218087
-6.00558e-05
0.000233776
-6.04433e-05
-6.20393e-05
0.000248714
6.36256e-06
-0.000118251
1.18956e-05
-0.000132489
1.78635e-05
-0.000128876
2.43944e-05
-0.00012503
3.13534e-05
-0.000121509
3.8648e-05
-0.000118135
4.62398e-05
-0.000114799
5.41263e-05
-0.000111441
6.23314e-05
-0.000108024
7.09024e-05
-0.000104528
7.99083e-05
-0.000100947
8.94365e-05
-9.72934e-05
9.95857e-05
-9.36031e-05
0.000110456
-8.99396e-05
0.000122128
-8.64006e-05
0.000134639
-8.31206e-05
0.000147947
-8.02637e-05
0.000161911
-7.79912e-05
0.000176352
-7.63985e-05
0.000191179
-7.54814e-05
0.00020636
-7.52367e-05
0.000221668
-7.57511e-05
-7.69814e-05
0.00023661
5.77359e-06
-0.000124024
1.03655e-05
-0.000137081
1.54834e-05
-0.000133994
2.1195e-05
-0.000130741
2.73712e-05
-0.000127685
3.39302e-05
-0.000124694
4.08372e-05
-0.000121706
4.8089e-05
-0.000118692
5.57055e-05
-0.00011564
6.3727e-05
-0.000112549
7.22111e-05
-0.000109431
8.12293e-05
-0.000106312
9.086e-05
-0.000103234
0.000101179
-0.000100258
0.000112243
-9.74652e-05
0.000124077
-9.49544e-05
0.00013665
-9.28372e-05
0.000149877
-9.12179e-05
0.000163643
-9.01647e-05
0.000177858
-8.96965e-05
0.000192437
-8.98159e-05
0.000207206
-9.05197e-05
-9.16663e-05
0.000221891
5.05273e-06
-0.000129077
8.94525e-06
-0.000140974
1.33949e-05
-0.000138444
1.84102e-05
-0.000135757
2.38835e-05
-0.000133158
2.97534e-05
-0.000130564
3.59957e-05
-0.000127949
4.26108e-05
-0.000125308
4.96182e-05
-0.000122648
5.70533e-05
-0.000119984
6.49651e-05
-0.000117343
7.34122e-05
-0.000114759
8.24568e-05
-0.000112278
9.21568e-05
-0.000109958
0.000102555
-0.000107863
0.000113668
-0.000106067
0.000125475
-0.000104645
0.000137921
-0.000103664
0.000150928
-0.000103172
0.000164418
-0.000103186
0.000178305
-0.000103703
0.000192468
-0.000104682
-0.000105958
0.000206759
4.35848e-06
-0.000133435
7.76956e-06
-0.000144385
1.1699e-05
-0.000142373
1.61301e-05
-0.000140188
2.09877e-05
-0.000138016
2.62349e-05
-0.000135811
3.18608e-05
-0.000133574
3.78724e-05
-0.000131319
4.42908e-05
-0.000129066
5.11494e-05
-0.000126843
5.84909e-05
-0.000124684
6.63645e-05
-0.000122632
7.48205e-05
-0.000120735
8.39038e-05
-0.000119042
9.36467e-05
-0.000117606
0.000104061
-0.000116481
0.000115133
-0.000115717
0.000126823
-0.000115354
0.000139075
-0.000115424
0.000151826
-0.000115938
0.000165011
-0.000116888
0.000178551
-0.000118223
-0.000119786
0.000192379
3.78291e-06
-0.000137218
6.87552e-06
-0.000147477
1.04024e-05
-0.0001459
1.43519e-05
-0.000144137
1.8684e-05
-0.000142348
2.33854e-05
-0.000140513
2.84593e-05
-0.000138648
3.39205e-05
-0.00013678
3.97935e-05
-0.000134939
4.6111e-05
-0.00013316
5.29122e-05
-0.000131485
6.0239e-05
-0.000129959
6.8133e-05
-0.000128628
7.66296e-05
-0.000127538
8.57532e-05
-0.00012673
9.55116e-05
-0.00012624
0.000105893
-0.000126098
0.000116868
-0.000126329
0.000128394
-0.000126949
0.000140422
-0.000127966
0.000152907
-0.000129373
0.000165808
-0.000131123
-0.000133085
0.000179106
3.35547e-06
-0.000140574
6.24282e-06
-0.000150365
9.46038e-06
-0.000149118
1.30192e-05
-0.000147696
1.69123e-05
-0.000146241
2.11467e-05
-0.000144747
2.57384e-05
-0.00014324
3.07099e-05
-0.000141752
3.60896e-05
-0.000140319
4.19109e-05
-0.000138982
4.82103e-05
-0.000137785
5.50249e-05
-0.000136774
6.23892e-05
-0.000135993
7.03313e-05
-0.00013548
7.88688e-05
-0.000135267
8.8006e-05
-0.000135377
9.77311e-05
-0.000135823
0.000108019
-0.000136617
0.000118834
-0.000137765
0.000130142
-0.000139274
0.000141913
-0.000141144
0.000154131
-0.000143342
-0.000145765
0.000166812
3.06607e-06
-0.00014364
5.82263e-06
-0.000153121
8.80371e-06
-0.000152099
1.20503e-05
-0.000150942
1.55822e-05
-0.000149773
1.94227e-05
-0.000148588
2.35986e-05
-0.000147416
2.81391e-05
-0.000146292
3.30764e-05
-0.000145256
3.84445e-05
-0.00014435
4.42782e-05
-0.000143619
5.06104e-05
-0.000143106
5.74701e-05
-0.000142852
6.48792e-05
-0.000142889
7.28498e-05
-0.000143238
8.13817e-05
-0.000143909
9.04617e-05
-0.000144904
0.000100066
-0.000146221
0.000110164
-0.000147863
0.00012073
-0.000149839
0.000131744
-0.000152158
0.000143209
-0.000154807
-0.000157712
0.000155156
2.8867e-06
-0.000146526
5.55721e-06
-0.000155792
8.35694e-06
-0.000154898
1.13551e-05
-0.000153941
1.45911e-05
-0.000153009
1.81009e-05
-0.000152097
2.1919e-05
-0.000151234
2.60799e-05
-0.000150453
3.06185e-05
-0.000149795
3.55694e-05
-0.000149301
4.09654e-05
-0.000149015
4.68359e-05
-0.000148977
5.3205e-05
-0.000149222
6.00895e-05
-0.000149774
6.74964e-05
-0.000150645
7.54215e-05
-0.000151834
8.3849e-05
-0.000153331
9.27539e-05
-0.000155126
0.000102108
-0.000157218
0.000111889
-0.00015962
0.000122085
-0.000162354
0.000132707
-0.000165429
-0.000168799
0.000143794
2.78364e-06
-0.00014931
5.39079e-06
-0.000158399
8.04825e-06
-0.000157556
1.08467e-05
-0.000156739
1.38388e-05
-0.000156001
1.70686e-05
-0.000155327
2.0576e-05
-0.000154741
2.43991e-05
-0.000154276
2.85741e-05
-0.00015397
3.3135e-05
-0.000153862
3.81127e-05
-0.000153992
4.3533e-05
-0.000154397
4.9416e-05
-0.000155105
5.57739e-05
-0.000156132
6.26094e-05
-0.00015748
6.99143e-05
-0.000159139
7.76697e-05
-0.000161086
8.58488e-05
-0.000163305
9.4423e-05
-0.000165792
0.00010337
-0.000168566
0.00011268
-0.000171665
0.000122369
-0.000175117
-0.000178906
0.000132475
2.72586e-06
-0.000152036
5.27575e-06
-0.000160949
7.81538e-06
-0.000160095
1.04485e-05
-0.000159372
1.32349e-05
-0.000158787
1.62231e-05
-0.000158315
1.9456e-05
-0.000157974
2.2973e-05
-0.000157793
2.68104e-05
-0.000157807
3.10011e-05
-0.000158052
3.55729e-05
-0.000158564
4.05484e-05
-0.000159373
4.59439e-05
-0.0001605
5.17678e-05
-0.000161955
5.80192e-05
-0.000163732
6.46863e-05
-0.000165806
7.17467e-05
-0.000168147
7.91712e-05
-0.00017073
8.69292e-05
-0.00017355
9.49966e-05
-0.000176634
0.000103364
-0.000180032
0.000112045
-0.000183798
-0.000187942
0.000121081
2.68848e-06
-0.000154724
5.17439e-06
-0.000163435
7.60795e-06
-0.000162529
1.00969e-05
-0.000161861
1.27036e-05
-0.000161394
1.54773e-05
-0.000161089
1.84616e-05
-0.000160958
2.16958e-05
-0.000161027
2.52148e-05
-0.000161326
2.90489e-05
-0.000161887
3.32228e-05
-0.000162738
3.77556e-05
-0.000163905
4.26603e-05
-0.000165405
4.7942e-05
-0.000167237
5.35968e-05
-0.000169386
5.96096e-05
-0.000171819
6.59553e-05
-0.000174493
7.26019e-05
-0.000177376
7.9516e-05
-0.000180464
8.66701e-05
-0.000183788
9.40526e-05
-0.000187415
0.000101677
-0.000191423
-0.000195854
0.000109589
2.65295e-06
-0.000157377
5.05889e-06
-0.000165841
7.38779e-06
-0.000164858
9.74324e-06
-0.000164217
1.21856e-05
-0.000163836
1.47625e-05
-0.000163666
1.75163e-05
-0.000163712
2.04843e-05
-0.000163995
2.36986e-05
-0.000164541
2.71861e-05
-0.000165374
3.09679e-05
-0.00016652
3.50596e-05
-0.000167997
3.94709e-05
-0.000169816
4.42045e-05
-0.000171971
4.92535e-05
-0.000174435
5.46008e-05
-0.000177166
6.02188e-05
-0.000180111
6.60732e-05
-0.000183231
7.21271e-05
-0.000186518
7.83494e-05
-0.00019001
8.47261e-05
-0.000193791
9.12727e-05
-0.000197969
-0.000202622
9.8041e-05
2.60563e-06
-0.000159983
4.91039e-06
-0.000168145
7.12841e-06
-0.000167076
9.35275e-06
-0.000166441
1.1638e-05
-0.000166121
1.40286e-05
-0.000166057
1.65639e-05
-0.000166247
1.92774e-05
-0.000166709
2.21975e-05
-0.000167461
2.53467e-05
-0.000168523
2.87422e-05
-0.000169915
3.23959e-05
-0.000171651
3.63145e-05
-0.000173735
4.04978e-05
-0.000176154
4.49373e-05
-0.000178875
4.96141e-05
-0.000181843
5.44997e-05
-0.000184996
5.95575e-05
-0.000188289
6.47475e-05
-0.000191708
7.00348e-05
-0.000195298
7.54035e-05
-0.00019916
8.08735e-05
-0.000203439
-0.000208255
8.65067e-05
2.53702e-06
-0.00016252
4.71777e-06
-0.000170326
6.81391e-06
-0.000169172
8.90377e-06
-0.000168531
1.10337e-05
-0.000168251
1.32435e-05
-0.000168266
1.55679e-05
-0.000168572
1.80356e-05
-0.000169177
2.06703e-05
-0.000170095
2.34895e-05
-0.000171342
2.65058e-05
-0.000172932
2.97274e-05
-0.000174872
3.31575e-05
-0.000177165
3.67937e-05
-0.00017979
4.06258e-05
-0.000182707
4.46344e-05
-0.000185852
4.87909e-05
-0.000189153
5.30572e-05
-0.000192555
5.73904e-05
-0.000196041
6.17518e-05
-0.000199659
6.61248e-05
-0.000203533
7.05332e-05
-0.000207848
-0.000212773
7.50511e-05
2.442e-06
-0.000164962
4.4768e-06
-0.000172361
6.43787e-06
-0.000171133
8.38609e-06
-0.000170479
1.03592e-05
-0.000170224
1.2391e-05
-0.000170298
1.45101e-05
-0.000170691
1.67395e-05
-0.000171406
1.90971e-05
-0.000172453
2.15951e-05
-0.00017384
2.42414e-05
-0.000175578
2.70396e-05
-0.000177671
2.99898e-05
-0.000180115
3.3087e-05
-0.000182887
3.63198e-05
-0.00018594
3.96693e-05
-0.000189201
4.31075e-05
-0.000192591
4.65957e-05
-0.000196043
5.00881e-05
-0.000199534
5.35429e-05
-0.000203114
5.69412e-05
-0.000206931
6.03089e-05
-0.000211215
-0.000216194
6.37294e-05
2.3211e-06
-0.000167283
4.18996e-06
-0.00017423
6.00166e-06
-0.000172945
7.79924e-06
-0.000172277
9.61281e-06
-0.000172038
1.14684e-05
-0.000172154
1.33873e-05
-0.00017261
1.53859e-05
-0.000173405
1.74756e-05
-0.000174543
1.9663e-05
-0.000176028
2.19506e-05
-0.000177866
2.43377e-05
-0.000180058
2.68205e-05
-0.000182597
2.93913e-05
-0.000185458
3.20384e-05
-0.000188587
3.47437e-05
-0.000191906
3.74806e-05
-0.000195328
4.02104e-05
-0.000198773
4.28851e-05
-0.000202208
4.54593e-05
-0.000205688
4.79101e-05
-0.000209382
5.02598e-05
-0.000213565
-0.000218529
5.25952e-05
2.18211e-06
-0.000169465
3.86543e-06
-0.000175913
5.51225e-06
-0.000174592
7.15021e-06
-0.000173915
8.80168e-06
-0.000173689
1.04834e-05
-0.000173836
1.22081e-05
-0.000174335
1.39846e-05
-0.000175181
1.58174e-05
-0.000176375
1.77071e-05
-0.000177918
1.96505e-05
-0.000179809
2.16422e-05
-0.000182049
2.36741e-05
-0.000184629
2.5736e-05
-0.00018752
2.78155e-05
-0.000190666
2.98962e-05
-0.000193987
3.19532e-05
-0.000197385
3.39486e-05
-0.000200768
3.58334e-05
-0.000204093
3.75582e-05
-0.000207413
3.90925e-05
-0.000210916
4.04486e-05
-0.000214921
-0.000219789
4.17082e-05
2.03962e-06
-0.000171505
3.5134e-06
-0.000177387
4.97933e-06
-0.000176058
6.45061e-06
-0.000175386
7.93959e-06
-0.000175178
9.45176e-06
-0.000175348
1.09901e-05
-0.000175873
1.25553e-05
-0.000176747
1.41447e-05
-0.000177965
1.57523e-05
-0.000179525
1.73694e-05
-0.000181426
1.89851e-05
-0.000183665
2.0587e-05
-0.000186231
2.21619e-05
-0.000189095
2.36967e-05
-0.000192201
2.51763e-05
-0.000195467
2.65784e-05
-0.000198787
2.78672e-05
-0.000202057
2.89935e-05
-0.00020522
2.99038e-05
-0.000208323
3.05567e-05
-0.000211569
3.09485e-05
-0.000215313
-0.000219986
3.1146e-05
1.90918e-06
-0.000173414
3.13981e-06
-0.000178617
4.41177e-06
-0.00017733
5.71359e-06
-0.000176688
7.04379e-06
-0.000176509
8.39413e-06
-0.000176698
9.75699e-06
-0.000177236
1.11244e-05
-0.000178114
1.24866e-05
-0.000179327
1.3831e-05
-0.00018087
1.51431e-05
-0.000182738
1.64064e-05
-0.000184928
1.76036e-05
-0.000187428
1.87181e-05
-0.00019021
1.97357e-05
-0.000193219
2.06425e-05
-0.000196373
2.14188e-05
-0.000199563
2.20322e-05
-0.00020267
2.24351e-05
-0.000205622
2.25693e-05
-0.000208457
2.23797e-05
-0.00021138
2.18412e-05
-0.000214774
-0.000219141
2.09954e-05
1.79915e-06
-0.000175213
2.74088e-06
-0.000179559
3.81475e-06
-0.000178403
4.95157e-06
-0.000177825
6.1323e-06
-0.000177689
7.33262e-06
-0.000177899
8.53402e-06
-0.000178437
9.72027e-06
-0.0001793
1.08745e-05
-0.000180481
1.1978e-05
-0.000181973
1.30104e-05
-0.000183771
1.39493e-05
-0.000185867
1.47723e-05
-0.000188251
1.54589e-05
-0.000190896
1.59931e-05
-0.000193753
1.63611e-05
-0.000196741
1.65459e-05
-0.000199748
1.65196e-05
-0.000202644
1.62375e-05
-0.00020534
1.56373e-05
-0.000207857
1.46486e-05
-0.000210391
1.32197e-05
-0.000213345
-0.000217282
1.13609e-05
1.69478e-06
-0.000176908
2.30237e-06
-0.000180167
3.19017e-06
-0.000179291
4.17616e-06
-0.000178811
5.22291e-06
-0.000178736
6.28892e-06
-0.000178965
7.34565e-06
-0.000179494
8.36965e-06
-0.000180324
9.33792e-06
-0.00018145
1.02262e-05
-0.000182862
1.10083e-05
-0.000184553
1.16563e-05
-0.000186515
1.21423e-05
-0.000188737
1.24416e-05
-0.000191195
1.25345e-05
-0.000193846
1.24061e-05
-0.000196613
1.20411e-05
-0.000199383
1.14164e-05
-0.000202019
1.04918e-05
-0.000204416
9.20299e-06
-0.000206568
7.46606e-06
-0.000208654
5.20381e-06
-0.000211083
-0.000214456
2.37791e-06
1.55209e-06
-0.00017846
1.80958e-06
-0.000180424
2.54219e-06
-0.000180024
3.4012e-06
-0.00017967
4.33402e-06
-0.000179669
5.2835e-06
-0.000179914
6.21359e-06
-0.000180424
7.09555e-06
-0.000181206
7.9017e-06
-0.000182256
8.60303e-06
-0.000183563
9.16835e-06
-0.000185118
9.56462e-06
-0.000186911
9.75885e-06
-0.000188932
9.72089e-06
-0.000191157
9.42582e-06
-0.000193551
8.85461e-06
-0.000196041
7.99194e-06
-0.00019852
6.81938e-06
-0.000200847
5.30251e-06
-0.000202899
3.3775e-06
-0.000204643
9.50465e-07
-0.000206227
-2.08593e-06
-0.000208047
-0.000210738
-5.80406e-06
1.32317e-06
-0.000179783
1.26301e-06
-0.000180364
1.88691e-06
-0.000180648
2.64633e-06
-0.000180429
3.48497e-06
-0.000180508
4.33472e-06
-0.000180764
5.15558e-06
-0.000181245
5.91567e-06
-0.000181967
6.58414e-06
-0.000182924
7.12854e-06
-0.000184107
7.5139e-06
-0.000185503
7.70306e-06
-0.000187101
7.65818e-06
-0.000188887
7.34297e-06
-0.000190842
6.72531e-06
-0.000192933
5.77966e-06
-0.000195096
4.48789e-06
-0.000197228
2.83413e-06
-0.000199193
7.8977e-07
-0.000200855
-1.70633e-06
-0.000202147
-4.75267e-06
-0.00020318
-8.47692e-06
-0.000204322
-0.000206215
-1.29999e-05
9.96897e-07
-0.00018078
6.93789e-07
-0.000180061
1.25457e-06
-0.000181208
1.93221e-06
-0.000181107
2.69262e-06
-0.000181268
3.45706e-06
-0.000181528
4.18423e-06
-0.000181972
4.84113e-06
-0.000182623
5.3955e-06
-0.000183479
5.81317e-06
-0.000184525
6.05712e-06
-0.000185747
6.08748e-06
-0.000187131
5.8623e-06
-0.000188662
5.33928e-06
-0.000190319
4.47828e-06
-0.000192072
3.24527e-06
-0.000193863
1.61563e-06
-0.000195599
-4.28901e-07
-0.000197149
-2.91411e-06
-0.000198369
-5.89382e-06
-0.000199168
-9.46905e-06
-0.000199605
-1.37865e-05
-0.000200005
-0.000200993
-1.90081e-05
5.30058e-07
-0.00018131
2.01739e-07
-0.000179733
6.45814e-07
-0.000181652
1.26701e-06
-0.000181728
1.96853e-06
-0.000181969
2.66084e-06
-0.000182221
3.30684e-06
-0.000182618
3.87581e-06
-0.000183192
4.33655e-06
-0.000183939
4.65547e-06
-0.000184844
4.79571e-06
-0.000185887
4.71665e-06
-0.000187052
4.37405e-06
-0.000188319
3.72104e-06
-0.000189666
2.71012e-06
-0.000191061
1.29734e-06
-0.00019245
-5.52729e-07
-0.000193749
-2.86608e-06
-0.000194835
-5.66954e-06
-0.000195566
-9.01273e-06
-0.000195824
-1.29947e-05
-0.000195623
-1.77778e-05
-0.000195222
-0.000195206
-2.35651e-05
-2.23129e-07
-0.000181087
-3.96308e-07
-0.000179559
-9.80353e-09
-0.000182039
6.6401e-07
-0.000182401
1.32782e-06
-0.000182633
1.95462e-06
-0.000182847
2.52606e-06
-0.00018319
3.01706e-06
-0.000183683
3.39985e-06
-0.000184322
3.64379e-06
-0.000185088
3.71459e-06
-0.000185958
3.57352e-06
-0.000186911
3.17692e-06
-0.000187922
2.47603e-06
-0.000188965
1.41786e-06
-0.000190003
-5.11889e-08
-0.000190981
-1.97908e-06
-0.000191821
-4.40377e-06
-0.000192411
-7.35829e-06
-0.000192611
-1.08912e-05
-0.000192291
-1.51001e-05