/*--------------------------------*- C++ -*----------------------------------*\
| =========                 |                                                 |
| \\      /  F ield         | OpenFOAM: The Open Source CFD Toolbox           |
|  \\    /   O peration     | Version:  v2012                                 |
|   \\  /    A nd           | Website:  www.openfoam.com                      |
|    \\/     M anipulation  |                                                 |
\*---------------------------------------------------------------------------*/
FoamFile
{
    version     2.0;
    format      ascii;
    class       volVectorField;
    location    "0.4";
    object      U;
}
// * * * * * * * * * * * * * * * * * * * * * * * * * * * * * * * * * * * * * //

dimensions      [0 1 -1 0 0 0 0];


internalField   nonuniform List<vector> 
2268
(
(-0.0523882 0.0175641 0)
(-0.074815 0.00244232 0)
(-0.0490709 -0.0133645 0)
(-0.00355536 -0.0172663 0)
(0.0498303 -0.0181226 0)
(0.103201 -0.0172551 0)
(0.15394 -0.0158621 0)
(0.201003 -0.0144562 0)
(0.244314 -0.0131793 0)
(0.284121 -0.0120256 0)
(0.320589 -0.0109247 0)
(0.353586 -0.00976289 0)
(0.382554 -0.00838759 0)
(0.406385 -0.00654273 0)
(0.422894 -0.0038147 0)
(0.429339 0.0011993 0)
(0.415862 0.00901649 0)
(0.375437 0.0201891 0)
(0.301362 0.0331237 0)
(0.185781 0.043439 0)
(0.0502546 0.0476591 0)
(-0.146852 0.00855744 0)
(-0.082886 -0.0601748 0)
(-0.0445566 0.0391813 0)
(-0.0334292 0.000343245 0)
(-0.00519966 -0.0257337 0)
(0.038688 -0.0357922 0)
(0.0885314 -0.0384967 0)
(0.138814 -0.0375445 0)
(0.187114 -0.0352425 0)
(0.232465 -0.0326443 0)
(0.274656 -0.0301177 0)
(0.313732 -0.0277004 0)
(0.349672 -0.0252613 0)
(0.382221 -0.0225568 0)
(0.410772 -0.0192435 0)
(0.434257 -0.0147982 0)
(0.450941 -0.00842463 0)
(0.458609 0.00145454 0)
(0.456195 0.0164848 0)
(0.437592 0.0376389 0)
(0.394351 0.0641718 0)
(0.311358 0.0908422 0)
(0.194459 0.107856 0)
(0.000840156 0.071422 0)
(0.00515531 -0.0758084 0)
(-0.0217987 0.0508114 0)
(-0.00437439 -0.010153 0)
(0.0262032 -0.0430931 0)
(0.0686311 -0.0569426 0)
(0.115545 -0.0606767 0)
(0.16275 -0.0593694 0)
(0.208302 -0.0560476 0)
(0.251397 -0.0521917 0)
(0.291787 -0.0483515 0)
(0.329403 -0.044591 0)
(0.36411 -0.0407164 0)
(0.395572 -0.0363645 0)
(0.423164 -0.0310218 0)
(0.44587 -0.0239577 0)
(0.462175 -0.0141553 0)
(0.470082 -9.95111e-05 0)
(0.467948 0.0204083 0)
(0.452889 0.0493344 0)
(0.421238 0.0874646 0)
(0.364352 0.12997 0)
(0.281246 0.161919 0)
(0.130374 0.124472 0)
(0.0764875 -0.046065 0)
(-0.00224953 0.0515609 0)
(0.0183595 -0.0209918 0)
(0.0517377 -0.0607163 0)
(0.093669 -0.0777012 0)
(0.138365 -0.0821925 0)
(0.182844 -0.0804748 0)
(0.225765 -0.0762149 0)
(0.266575 -0.0712233 0)
(0.305063 -0.0661783 0)
(0.341092 -0.0611506 0)
(0.37445 -0.0558855 0)
(0.404746 -0.0499126 0)
(0.431354 -0.0425719 0)
(0.453333 -0.0329543 0)
(0.469371 -0.019839 0)
(0.477799 -0.00157128 0)
(0.477061 0.0240416 0)
(0.465364 0.0593155 0)
(0.44097 0.105666 0)
(0.399339 0.159422 0)
(0.337549 0.20544 0)
(0.220217 0.180324 0)
(0.130727 0.0183711 0)
(0.00944753 0.0432227 0)
(0.0356577 -0.0344676 0)
(0.0729385 -0.0791394 0)
(0.115289 -0.0981261 0)
(0.158387 -0.102873 0)
(0.200487 -0.100616 0)
(0.240946 -0.0954907 0)
(0.279533 -0.089506 0)
(0.316121 -0.0833962 0)
(0.350545 -0.0772124 0)
(0.382536 -0.0706398 0)
(0.411672 -0.0631179 0)
(0.437346 -0.0538678 0)
(0.458703 -0.0418421 0)
(0.47463 -0.0256755 0)
(0.483784 -0.0036432 0)
(0.484926 0.0264224 0)
(0.476944 0.0668609 0)
(0.459016 0.119304 0)
(0.428624 0.181248 0)
(0.380979 0.239951 0)
(0.288491 0.236882 0)
(0.175736 0.11257 0)
(0.0148197 0.0301177 0)
(0.0484672 -0.0512917 0)
(0.0906614 -0.0987253 0)
(0.134112 -0.118356 0)
(0.176013 -0.122668 0)
(0.215967 -0.119645 0)
(0.254108 -0.113683 0)
(0.290562 -0.106833 0)
(0.3253 -0.099802 0)
(0.358147 -0.0925883 0)
(0.388795 -0.0848162 0)
(0.416805 -0.0758524 0)
(0.441603 -0.0648279 0)
(0.462438 -0.0505964 0)
(0.47839 -0.0317022 0)
(0.488423 -0.00639982 0)
(0.491673 0.0273875 0)
(0.487584 0.0719011 0)
(0.475986 0.128893 0)
(0.455658 0.197148 0)
(0.420133 0.267464 0)
(0.350337 0.292601 0)
(0.219991 0.231754 0)
(0.017444 0.0140228 0)
(0.0585061 -0.071437 0)
(0.105972 -0.119771 0)
(0.150775 -0.138592 0)
(0.191544 -0.141675 0)
(0.229404 -0.137606 0)
(0.26531 -0.13081 0)
(0.299718 -0.123206 0)
(0.332679 -0.115384 0)
(0.364 -0.10726 0)
(0.393343 -0.0983975 0)
(0.420265 -0.088108 0)
(0.444238 -0.0754607 0)
(0.464624 -0.0592457 0)
(0.480696 -0.037962 0)
(0.491703 -0.00989078 0)
(0.49716 0.0268954 0)
(0.497041 0.0744667 0)
(0.491848 0.134619 0)
(0.481639 0.20744 0)
(0.459513 0.287702 0)
(0.417736 0.346368 0)
(0.271357 0.373298 0)
(0.0196766 -0.00427455 0)
(0.067459 -0.0943788 0)
(0.120166 -0.142121 0)
(0.166005 -0.158743 0)
(0.20528 -0.15983 0)
(0.240894 -0.154473 0)
(0.274587 -0.14687 0)
(0.307036 -0.138629 0)
(0.338309 -0.13014 0)
(0.368174 -0.121218 0)
(0.396261 -0.11137 0)
(0.422132 -0.0998712 0)
(0.445315 -0.0857592 0)
(0.465296 -0.0677933 0)
(0.481534 -0.0444661 0)
(0.493544 -0.014133 0)
(0.501207 0.0249224 0)
(0.505016 0.0745109 0)
(0.506271 0.136265 0)
(0.506598 0.211185 0)
(0.501466 0.297387 0)
(0.492932 0.387043 0)
(0.344096 0.575241 0)
(0.0372329 -0.0017261 0)
(-0.0809154 0.0373486 0)
(-0.241738 0.0332315 0)
(-0.324512 0.0147337 0)
(-0.346643 -0.00100518 0)
(-0.319553 -0.0128961 0)
(-0.25814 -0.0233447 0)
(-0.160436 -0.0336274 0)
(-0.0317779 -0.0400681 0)
(0.111898 -0.0411219 0)
(0.253551 -0.0372499 0)
(0.378042 -0.0293688 0)
(0.470231 -0.0179101 0)
(0.517244 -0.00233342 0)
(0.498789 0.0132263 0)
(0.421496 0.0252434 0)
(0.30236 0.0317217 0)
(0.162058 0.0316684 0)
(0.0427302 0.0220489 0)
(-0.0103669 0.020541 0)
(-0.13529 0.0902293 0)
(-0.281316 0.0780928 0)
(-0.337341 0.0323433 0)
(-0.34029 -0.00432836 0)
(-0.310256 -0.0279292 0)
(-0.24919 -0.0511798 0)
(-0.153169 -0.0757057 0)
(-0.02636 -0.0920109 0)
(0.114931 -0.0960933 0)
(0.253967 -0.0890103 0)
(0.376857 -0.0720258 0)
(0.469933 -0.0457494 0)
(0.520911 -0.0109544 0)
(0.526729 0.0273751 0)
(0.47498 0.0618167 0)
(0.364029 0.0852928 0)
(0.211425 0.0907235 0)
(0.0638495 0.0686891 0)
(-0.03545 0.0565734 0)
(-0.148737 0.141213 0)
(-0.273895 0.118992 0)
(-0.324777 0.0434031 0)
(-0.321377 -0.013645 0)
(-0.287178 -0.0465709 0)
(-0.229154 -0.08106 0)
(-0.137309 -0.119689 0)
(-0.0130012 -0.145896 0)
(0.125905 -0.152376 0)
(0.262124 -0.141805 0)
(0.382808 -0.116084 0)
(0.475147 -0.0759607 0)
(0.527464 -0.0236696 0)
(0.531962 0.0362266 0)
(0.481299 0.0949286 0)
(0.373871 0.139592 0)
(0.225232 0.155081 0)
(0.0742971 0.128598 0)
(-0.0388197 0.0951244 0)
(-0.140705 0.186705 0)
(-0.257925 0.159531 0)
(-0.305172 0.0520595 0)
(-0.288081 -0.0261908 0)
(-0.24673 -0.0660065 0)
(-0.19328 -0.109887 0)
(-0.108567 -0.163859 0)
(0.0117973 -0.201177 0)
(0.148042 -0.209858 0)
(0.281414 -0.1954 0)
(0.400102 -0.160594 0)
(0.491825 -0.106387 0)
(0.544732 -0.0357091 0)
(0.549642 0.0458902 0)
(0.499248 0.128195 0)
(0.391169 0.194014 0)
(0.240273 0.220975 0)
(0.0830291 0.193884 0)
(-0.022957 0.130698 0)
(-0.112752 0.223445 0)
(-0.227055 0.199937 0)
(-0.263973 0.0542263 0)
(-0.223108 -0.047276 0)
(-0.170035 -0.088348 0)
(-0.122823 -0.13686 0)
(-0.0514662 -0.206252 0)
(0.0588334 -0.255923 0)
(0.188422 -0.267018 0)
(0.316193 -0.248786 0)
(0.431447 -0.205347 0)
(0.521993 -0.137235 0)
(0.574869 -0.0480128 0)
(0.579759 0.055621 0)
(0.528852 0.161997 0)
(0.418093 0.25 0)
(0.260067 0.290159 0)
(0.0915602 0.263825 0)
(0.0112408 0.151608 0)
(-0.0593616 0.242869 0)
(-0.161802 0.240968 0)
(-0.165157 0.0459844 0)
(-0.0906189 -0.0793877 0)
(-0.0287514 -0.113072 0)
(0.010801 -0.159241 0)
(0.0599908 -0.242464 0)
(0.146281 -0.307392 0)
(0.257914 -0.321375 0)
(0.37265 -0.299354 0)
(0.480093 -0.248498 0)
(0.567514 -0.167479 0)
(0.619412 -0.0600352 0)
(0.623376 0.0657432 0)
(0.570336 0.196836 0)
(0.45436 0.308652 0)
(0.285415 0.364529 0)
(0.100795 0.339926 0)
(0.097076 0.202237 0)
(0.0491848 0.446181 0)
(-0.00200394 0.32408 0)
(0.0800114 0.045736 0)
(0.181914 -0.10744 0)
(0.205499 -0.122371 0)
(0.232047 -0.164738 0)
(0.255521 -0.264437 0)
(0.29823 -0.349872 0)
(0.370168 -0.368027 0)
(0.458045 -0.344018 0)
(0.549493 -0.288356 0)
(0.630016 -0.196536 0)
(0.679521 -0.0713565 0)
(0.681766 0.0769086 0)
(0.625146 0.233793 0)
(0.501137 0.371427 0)
(0.317876 0.445799 0)
(0.111964 0.424094 0)
(0.253359 0.00988315 0)
(0.354099 0.204486 0)
(0.400886 0.256665 0)
(0.674476 -0.055627 0)
(0.713142 -0.126839 0)
(0.559783 -0.0884526 0)
(0.533694 -0.137725 0)
(0.545889 -0.260528 0)
(0.536862 -0.363782 0)
(0.53565 -0.387885 0)
(0.576778 -0.376999 0)
(0.641067 -0.32276 0)
(0.709761 -0.223817 0)
(0.755525 -0.0821124 0)
(0.755889 0.0892293 0)
(0.695078 0.273922 0)
(0.560482 0.440632 0)
(0.359908 0.537165 0)
(0.126584 0.517921 0)
(0.0238398 -0.0373141 0)
(0.0838796 -0.135798 0)
(0.143296 -0.178662 0)
(0.188281 -0.189333 0)
(0.223759 -0.186448 0)
(0.255444 -0.17906 0)
(0.285784 -0.170438 0)
(0.31543 -0.161451 0)
(0.344313 -0.152118 0)
(0.372097 -0.1421 0)
(0.398362 -0.130843 0)
(0.422687 -0.117609 0)
(0.444701 -0.101437 0)
(0.464094 -0.0810876 0)
(0.480615 -0.0550922 0)
(0.494162 -0.0219759 0)
(0.505133 0.0195197 0)
(0.514752 0.0705731 0)
(0.525676 0.131988 0)
(0.542423 0.204718 0)
(0.57076 0.288499 0)
(0.631345 0.387639 0)
(0.734302 0.609351 0)
(0.0324055 -0.0996044 0)
(0.120901 -0.207721 0)
(0.1811 -0.231273 0)
(0.215231 -0.227875 0)
(0.241318 -0.21885 0)
(0.266828 -0.20962 0)
(0.29305 -0.200535 0)
(0.319648 -0.191129 0)
(0.346011 -0.180996 0)
(0.371548 -0.169694 0)
(0.395739 -0.156692 0)
(0.418184 -0.141343 0)
(0.438655 -0.122821 0)
(0.457124 -0.100032 0)
(0.473714 -0.0716425 0)
(0.488721 -0.0364412 0)
(0.503033 0.00618091 0)
(0.518211 0.0558368 0)
(0.537434 0.111731 0)
(0.565653 0.172903 0)
(0.609302 0.235266 0)
(0.675249 0.293226 0)
(0.793049 0.351329 0)
(0.0645737 -0.186292 0)
(0.184193 -0.299452 0)
(0.22026 -0.28061 0)
(0.229959 -0.257782 0)
(0.246022 -0.244604 0)
(0.267696 -0.235486 0)
(0.29189 -0.226812 0)
(0.316934 -0.217325 0)
(0.341791 -0.206606 0)
(0.36573 -0.194278 0)
(0.388199 -0.179894 0)
(0.408824 -0.162936 0)
(0.427493 -0.142757 0)
(0.444443 -0.118475 0)
(0.46025 -0.0889691 0)
(0.475781 -0.0533937 0)
(0.492061 -0.0118419 0)
(0.510713 0.0343228 0)
(0.534595 0.0826403 0)
(0.566099 0.131973 0)
(0.608339 0.175502 0)
(0.665636 0.202455 0)
(0.752996 0.210168 0)
(0.1623 -0.32105 0)
(0.253248 -0.381546 0)
(0.231399 -0.276676 0)
(0.220254 -0.253129 0)
(0.236221 -0.248953 0)
(0.258979 -0.244756 0)
(0.283234 -0.238124 0)
(0.307637 -0.229349 0)
(0.331377 -0.218676 0)
(0.353803 -0.205948 0)
(0.374411 -0.190871 0)
(0.392895 -0.173145 0)
(0.409295 -0.152447 0)
(0.424188 -0.128245 0)
(0.438779 -0.0996035 0)
(0.45493 -0.0657529 0)
(0.47463 -0.0270716 0)
(0.497959 0.0140119 0)
(0.525867 0.0556811 0)
(0.559836 0.0962438 0)
(0.602325 0.12636 0)
(0.657254 0.134756 0)
(0.728791 0.128044 0)
(0.246638 -0.54649 0)
(0.145366 -0.346841 0)
(0.155097 -0.23636 0)
(0.203911 -0.256333 0)
(0.231448 -0.262901 0)
(0.25515 -0.260883 0)
(0.278348 -0.253875 0)
(0.301047 -0.243895 0)
(0.322726 -0.231535 0)
(0.342775 -0.216794 0)
(0.360715 -0.199531 0)
(0.376229 -0.179601 0)
(0.389211 -0.156884 0)
(0.399884 -0.131163 0)
(0.409342 -0.101691 0)
(0.420111 -0.0679634 0)
(0.437044 -0.0303099 0)
(0.467063 0.00233931 0)
(0.503842 0.0375457 0)
(0.551072 0.072799 0)
(0.612068 0.0924053 0)
(0.673498 0.0877389 0)
(0.733112 0.072941 0)
(-0.111367 -0.768208 0)
(-0.033663 -0.388815 0)
(0.0529121 -0.293417 0)
(0.135744 -0.319058 0)
(0.200524 -0.338973 0)
(0.256238 -0.341572 0)
(0.306197 -0.335522 0)
(0.351032 -0.324639 0)
(0.391358 -0.309343 0)
(0.42781 -0.289564 0)
(0.460722 -0.265504 0)
(0.490004 -0.237666 0)
(0.515079 -0.207028 0)
(0.534688 -0.175223 0)
(0.546998 -0.144293 0)
(0.551781 -0.116651 0)
(0.56 -0.0894137 0)
(0.500839 -0.0398391 0)
(0.49565 -0.00451445 0)
(0.53651 0.0328063 0)
(0.61892 0.0609297 0)
(0.693087 0.0520711 0)
(0.752689 0.0312596 0)
(-0.0755154 -0.489011 0)
(-0.0325569 -0.473273 0)
(0.0581831 -0.420274 0)
(0.140277 -0.398318 0)
(0.209004 -0.384589 0)
(0.268059 -0.370212 0)
(0.321653 -0.354381 0)
(0.371409 -0.337158 0)
(0.417911 -0.318123 0)
(0.46166 -0.296698 0)
(0.503089 -0.272342 0)
(0.542461 -0.244573 0)
(0.579838 -0.212993 0)
(0.615097 -0.177249 0)
(0.6481 -0.136866 0)
(0.679429 -0.0914698 0)
(0.711438 -0.0438689 0)
(0.738033 -0.0221325 0)
(0.768386 -0.0650298 0)
(0.802561 -0.126903 0)
(0.834299 -0.131793 0)
(0.787143 -0.0474896 0)
(0.804752 -0.0260188 0)
(-0.0075052 -0.510294 0)
(0.0181136 -0.534083 0)
(0.0842617 -0.496721 0)
(0.150273 -0.468413 0)
(0.211636 -0.447417 0)
(0.268004 -0.428258 0)
(0.321034 -0.408934 0)
(0.371795 -0.388806 0)
(0.420789 -0.367317 0)
(0.468456 -0.343879 0)
(0.51527 -0.317935 0)
(0.561725 -0.288996 0)
(0.60836 -0.256697 0)
(0.655815 -0.220865 0)
(0.705 -0.181664 0)
(0.757462 -0.140055 0)
(0.815719 -0.0994083 0)
(0.880026 -0.0696854 0)
(0.94335 -0.0589044 0)
(0.994937 -0.0513847 0)
(1.03721 -0.0343146 0)
(1.08235 -0.0419594 0)
(1.1436 -0.116685 0)
(0.00895622 -0.524985 0)
(0.0425523 -0.583803 0)
(0.0966265 -0.555728 0)
(0.150899 -0.527325 0)
(0.204308 -0.503738 0)
(0.256168 -0.482343 0)
(0.306809 -0.461416 0)
(0.356673 -0.440117 0)
(0.406086 -0.417828 0)
(0.455412 -0.393996 0)
(0.505115 -0.368143 0)
(0.555772 -0.339897 0)
(0.608095 -0.309072 0)
(0.662963 -0.275769 0)
(0.721479 -0.240581 0)
(0.785028 -0.204969 0)
(0.854976 -0.172021 0)
(0.930505 -0.147332 0)
(1.00575 -0.134914 0)
(1.07515 -0.127251 0)
(1.14346 -0.115419 0)
(1.22091 -0.10881 0)
(1.30428 -0.128227 0)
(0.0174033 -0.551273 0)
(0.051733 -0.629275 0)
(0.0964975 -0.604713 0)
(0.142308 -0.577401 0)
(0.189117 -0.553674 0)
(0.236311 -0.531924 0)
(0.283737 -0.510795 0)
(0.331496 -0.489502 0)
(0.379783 -0.467501 0)
(0.428894 -0.444345 0)
(0.479254 -0.419685 0)
(0.531429 -0.393296 0)
(0.586122 -0.365147 0)
(0.644168 -0.3355 0)
(0.706499 -0.305062 0)
(0.774036 -0.275202 0)
(0.847274 -0.248231 0)
(0.925183 -0.227288 0)
(1.00449 -0.214069 0)
(1.08279 -0.205407 0)
(1.16237 -0.198235 0)
(1.24629 -0.1978 0)
(1.32907 -0.213527 0)
(0.0218888 -0.586378 0)
(0.0528975 -0.668904 0)
(0.0893409 -0.64591 0)
(0.128422 -0.620621 0)
(0.169636 -0.598212 0)
(0.212304 -0.577367 0)
(0.256097 -0.55704 0)
(0.30097 -0.536612 0)
(0.347029 -0.515673 0)
(0.394517 -0.493913 0)
(0.443809 -0.47112 0)
(0.495406 -0.447208 0)
(0.549924 -0.422261 0)
(0.608058 -0.396611 0)
(0.67051 -0.370928 0)
(0.737843 -0.346311 0)
(0.810188 -0.324339 0)
(0.886763 -0.306793 0)
(0.965834 -0.294558 0)
(1.04616 -0.286637 0)
(1.12833 -0.282321 0)
(1.21266 -0.284023 0)
(1.29576 -0.294248 0)
(0.0218965 -0.621809 0)
(0.0491992 -0.701504 0)
(0.0791045 -0.68059 0)
(0.112756 -0.658186 0)
(0.149096 -0.637927 0)
(0.18743 -0.618718 0)
(0.227408 -0.599821 0)
(0.268929 -0.580816 0)
(0.31206 -0.561441 0)
(0.357002 -0.541522 0)
(0.404072 -0.520976 0)
(0.453695 -0.499827 0)
(0.506379 -0.478239 0)
(0.562673 -0.456562 0)
(0.623088 -0.435371 0)
(0.687983 -0.415501 0)
(0.757374 -0.39801 0)
(0.830748 -0.383972 0)
(0.907133 -0.373985 0)
(0.98574 -0.367884 0)
(1.06641 -0.365599 0)
(1.14861 -0.368005 0)
(1.23026 -0.375289 0)
(0.0197255 -0.654805 0)
(0.0435479 -0.728377 0)
(0.0685652 -0.710161 0)
(0.0977495 -0.690996 0)
(0.129778 -0.673229 0)
(0.164025 -0.656021 0)
(0.200186 -0.638911 0)
(0.238167 -0.621669 0)
(0.278022 -0.604168 0)
(0.319921 -0.586357 0)
(0.364132 -0.568257 0)
(0.411007 -0.549977 0)
(0.460957 -0.531732 0)
(0.514409 -0.513862 0)
(0.57174 -0.496844 0)
(0.63319 -0.481297 0)
(0.698754 -0.467939 0)
(0.768103 -0.457456 0)
(0.84065 -0.450279 0)
(0.915835 -0.446486 0)
(0.993268 -0.446104 0)
(1.07227 -0.44928 0)
(1.15157 -0.455389 0)
(0.0169234 -0.683955 0)
(0.0376964 -0.750886 0)
(0.0591942 -0.735716 0)
(0.0846989 -0.719752 0)
(0.112943 -0.704525 0)
(0.143435 -0.689458 0)
(0.175952 -0.674323 0)
(0.210437 -0.659041 0)
(0.246952 -0.643603 0)
(0.285653 -0.628055 0)
(0.326767 -0.612501 0)
(0.370591 -0.597114 0)
(0.417454 -0.582137 0)
(0.467693 -0.567888 0)
(0.521592 -0.554756 0)
(0.579321 -0.543197 0)
(0.640871 -0.533702 0)
(0.706027 -0.526716 0)
(0.774412 -0.522542 0)
(0.845607 -0.521291 0)
(0.919209 -0.52296 0)
(0.994631 -0.527389 0)
(1.07113 -0.533691 0)
(0.0142954 -0.709138 0)
(0.0325848 -0.770302 0)
(0.0515914 -0.758127 0)
(0.0740891 -0.745081 0)
(0.0990775 -0.732264 0)
(0.126223 -0.71934 0)
(0.1554 -0.706252 0)
(0.186605 -0.693035 0)
(0.219923 -0.679769 0)
(0.255503 -0.666573 0)
(0.293549 -0.653617 0)
(0.334313 -0.641114 0)
(0.378071 -0.629322 0)
(0.42509 -0.61853 0)
(0.475589 -0.609054 0)
(0.529687 -0.601225 0)
(0.587375 -0.595372 0)
(0.648505 -0.591783 0)
(0.71281 -0.590654 0)
(0.779979 -0.592071 0)
(0.84968 -0.595994 0)
(0.921476 -0.602147 0)
(0.994983 -0.609638 0)
(0.0122027 -0.730843 0)
(0.0285885 -0.787649 0)
(0.0458432 -0.778095 0)
(0.0659123 -0.767553 0)
(0.0881631 -0.756929 0)
(0.11241 -0.746066 0)
(0.138624 -0.735019 0)
(0.166865 -0.723903 0)
(0.197244 -0.712858 0)
(0.229915 -0.702059 0)
(0.265064 -0.69172 0)
(0.302916 -0.682077 0)
(0.343707 -0.673389 0)
(0.387655 -0.665914 0)
(0.434929 -0.659905 0)
(0.48561 -0.655596 0)
(0.539679 -0.653197 0)
(0.597022 -0.652882 0)
(0.657444 -0.654768 0)
(0.720704 -0.658908 0)
(0.786554 -0.66525 0)
(0.854708 -0.673517 0)
(0.925026 -0.682916 0)
(0.0107239 -0.749858 0)
(0.025729 -0.803649 0)
(0.0417516 -0.796174 0)
(0.0598873 -0.787689 0)
(0.0798798 -0.779003 0)
(0.101671 -0.770067 0)
(0.125324 -0.761 0)
(0.150952 -0.751965 0)
(0.178697 -0.743144 0)
(0.208715 -0.734747 0)
(0.241187 -0.727012 0)
(0.276321 -0.720186 0)
(0.314323 -0.714516 0)
(0.355373 -0.710227 0)
(0.399596 -0.707516 0)
(0.447042 -0.706537 0)
(0.49768 -0.707411 0)
(0.551408 -0.710223 0)
(0.608067 -0.715036 0)
(0.667472 -0.721883 0)
(0.729447 -0.730733 0)
(0.793824 -0.741369 0)
(0.860613 -0.753147 0)
(0.0097797 -0.766989 0)
(0.0238391 -0.818791 0)
(0.0389863 -0.812806 0)
(0.0556027 -0.805948 0)
(0.0737593 -0.798933 0)
(0.093504 -0.791756 0)
(0.114973 -0.784567 0)
(0.138328 -0.77755 0)
(0.163732 -0.770911 0)
(0.191347 -0.76488 0)
(0.221352 -0.759702 0)
(0.253944 -0.755621 0)
(0.289305 -0.752865 0)
(0.327582 -0.751624 0)
(0.368863 -0.752039 0)
(0.413168 -0.754198 0)
(0.460449 -0.758146 0)
(0.510607 -0.763901 0)
(0.563503 -0.771489 0)
(0.618982 -0.780945 0)
(0.676916 -0.792283 0)
(0.737221 -0.805383 0)
(0.799999 -0.819766 0)
(0.00923221 -0.78291 0)
(0.0226807 -0.833385 0)
(0.037183 -0.828334 0)
(0.0526095 -0.822716 0)
(0.0692825 -0.817111 0)
(0.0873305 -0.811507 0)
(0.106946 -0.80606 0)
(0.128324 -0.800959 0)
(0.151641 -0.79642 0)
(0.177065 -0.792675 0)
(0.204774 -0.789964 0)
(0.234955 -0.78852 0)
(0.26777 -0.788542 0)
(0.303333 -0.790182 0)
(0.341702 -0.79353 0)
(0.382868 -0.798611 0)
(0.426769 -0.805404 0)
(0.4733 -0.813875 0)
(0.522324 -0.824022 0)
(0.573698 -0.835903 0)
(0.627319 -0.849597 0)
(0.683155 -0.865096 0)
(0.741356 -0.882083 0)
(0.00894129 -0.798119 0)
(0.0220087 -0.847602 0)
(0.0359956 -0.843011 0)
(0.0504801 -0.838297 0)
(0.0659459 -0.833851 0)
(0.0825782 -0.829627 0)
(0.100607 -0.825764 0)
(0.120248 -0.822446 0)
(0.141683 -0.819884 0)
(0.165083 -0.818303 0)
(0.190623 -0.817929 0)
(0.218478 -0.81897 0)
(0.24879 -0.821595 0)
(0.281646 -0.825916 0)
(0.317073 -0.83197 0)
(0.355041 -0.839724 0)
(0.395475 -0.849097 0)
(0.438261 -0.860008 0)
(0.483251 -0.872444 0)
(0.530294 -0.886492 0)
(0.579293 -0.902309 0)
(0.630242 -0.920003 0)
(0.683305 -0.939402 0)
(0.00878985 -0.812937 0)
(0.021608 -0.861516 0)
(0.0351273 -0.857009 0)
(0.048842 -0.852913 0)
(0.0633008 -0.849396 0)
(0.078728 -0.846356 0)
(0.0953739 -0.843902 0)
(0.113461 -0.842207 0)
(0.13317 -0.841466 0)
(0.154668 -0.841888 0)
(0.178126 -0.843677 0)
(0.203705 -0.847012 0)
(0.231526 -0.852027 0)
(0.261649 -0.858793 0)
(0.294075 -0.867296 0)
(0.328763 -0.877445 0)
(0.365626 -0.889099 0)
(0.404534 -0.902139 0)
(0.445317 -0.916545 0)
(0.487809 -0.932442 0)
(0.531908 -0.950066 0)
(0.577624 -0.969641 0)
(0.62511 -0.991135 0)
(0.00868701 -0.827532 0)
(0.0213064 -0.875122 0)
(0.0343429 -0.870421 0)
(0.04739 -0.866714 0)
(0.0609738 -0.863919 0)
(0.0753417 -0.86187 0)
(0.0907511 -0.860644 0)
(0.107417 -0.860391 0)
(0.125512 -0.861287 0)
(0.145197 -0.863517 0)
(0.166633 -0.867258 0)
(0.189966 -0.872658 0)
(0.215292 -0.879816 0)
(0.242647 -0.888762 0)
(0.272014 -0.899431 0)
(0.303345 -0.911672 0)
(0.336544 -0.925288 0)
(0.371459 -0.940122 0)
(0.407896 -0.956151 0)
(0.44567 -0.973536 0)
(0.48467 -0.992593 0)
(0.524913 -1.01367 0)
(0.566544 -1.03689 0)
(0.00856536 -0.841953 0)
(0.0209754 -0.888352 0)
(0.0334686 -0.883278 0)
(0.0458897 -0.879779 0)
(0.0586732 -0.877528 0)
(0.0720753 -0.876289 0)
(0.0863458 -0.876106 0)
(0.101682 -0.877105 0)
(0.118245 -0.879437 0)
(0.136183 -0.883257 0)
(0.155643 -0.888712 0)
(0.176751 -0.895918 0)
(0.199579 -0.904944 0)
(0.224137 -0.915779 0)
(0.250403 -0.92831 0)
(0.278325 -0.942324 0)
(0.307798 -0.95757 0)
(0.338646 -0.973854 0)
(0.37065 -0.991146 0)
(0.40361 -1.00964 0)
(0.43741 -1.02973 0)
(0.472067 -1.05191 0)
(0.507735 -1.0765 0)
(0.00837847 -0.856167 0)
(0.0205249 -0.901095 0)
(0.0323852 -0.895561 0)
(0.0441772 -0.892137 0)
(0.0561897 -0.890278 0)
(0.0686786 -0.889681 0)
(0.0818703 -0.890364 0)
(0.0959396 -0.892421 0)
(0.111029 -0.895976 0)
(0.127273 -0.901154 0)
(0.1448 -0.908068 0)
(0.16371 -0.916806 0)
(0.184044 -0.927408 0)
(0.205798 -0.939826 0)
(0.228948 -0.953899 0)
(0.253441 -0.969358 0)
(0.279162 -0.985896 0)
(0.305912 -1.00328 0)
(0.333456 -1.02147 0)
(0.361588 -1.04068 0)
(0.390178 -1.06141 0)
(0.419245 -1.08432 0)
(0.44897 -1.10994 0)
(0.0080966 -0.870078 0)
(0.0198982 -0.913229 0)
(0.03102 -0.907218 0)
(0.0421518 -0.903784 0)
(0.0533925 -0.90219 0)
(0.0649906 -0.902087 0)
(0.0771381 -0.903465 0)
(0.0899834 -0.906389 0)
(0.103648 -0.910951 0)
(0.118248 -0.917245 0)
(0.133886 -0.925354 0)
(0.150631 -0.935341 0)
(0.168496 -0.94722 0)
(0.187464 -0.960909 0)
(0.207514 -0.9762 0)
(0.228593 -0.992773 0)
(0.250572 -1.01027 0)
(0.273241 -1.02842 0)
(0.296356 -1.04714 0)
(0.319709 -1.06669 0)
(0.343154 -1.08766 0)
(0.366698 -1.11094 0)
(0.390564 -1.13729 0)
(0.00770502 -0.883541 0)
(0.0190691 -0.924626 0)
(0.0293458 -0.91818 0)
(0.0397681 -0.914689 0)
(0.0502195 -0.913262 0)
(0.0609305 -0.913527 0)
(0.072055 -0.915445 0)
(0.0837112 -0.919051 0)
(0.0959966 -0.924406 0)
(0.109002 -0.931573 0)
(0.122801 -0.940611 0)
(0.137426 -0.951561 0)
(0.152865 -0.964414 0)
(0.169093 -0.979057 0)
(0.18609 -0.995243 0)
(0.203802 -1.01261 0)
(0.222088 -1.03074 0)
(0.240732 -1.04931 0)
(0.2595 -1.06822 0)
(0.278179 -1.08773 0)
(0.296586 -1.10858 0)
(0.314716 -1.13187 0)
(0.332826 -1.15867 0)
(0.00721767 -0.896406 0)
(0.018042 -0.935171 0)
(0.027375 -0.928368 0)
(0.0370284 -0.9248 0)
(0.0466634 -0.923476 0)
(0.0564838 -0.924009 0)
(0.0666037 -0.926328 0)
(0.0771065 -0.930444 0)
(0.0880603 -0.936386 0)
(0.0995262 -0.944191 0)
(0.111544 -0.953898 0)
(0.124109 -0.965527 0)
(0.137186 -0.979049 0)
(0.150745 -0.994328 0)
(0.164765 -1.01109 0)
(0.179184 -1.02892 0)
(0.193854 -1.04737 0)
(0.208571 -1.06605 0)
(0.223114 -1.08482 0)
(0.237255 -1.10395 0)
(0.250766 -1.12431 0)
(0.263616 -1.14725 0)
(0.276077 -1.17418 0)
(0.00669938 -0.908556 0)
(0.0168524 -0.944765 0)
(0.0251469 -0.937709 0)
(0.0339721 -0.934069 0)
(0.0427597 -0.932818 0)
(0.0516898 -0.93354 0)
(0.0608286 -0.936142 0)
(0.0702196 -0.940608 0)
(0.0798972 -0.946944 0)
(0.0898886 -0.955164 0)
(0.100196 -0.965286 0)
(0.110779 -0.977313 0)
(0.121582 -0.991202 0)
(0.132567 -1.0068 0)
(0.143709 -1.02381 0)
(0.154931 -1.04179 0)
(0.166088 -1.06026 0)
(0.177001 -1.07876 0)
(0.187467 -1.09707 0)
(0.197228 -1.1155 0)
(0.206006 -1.13501 0)
(0.213739 -1.15722 0)
(0.220673 -1.18388 0)
(0.00626202 -0.919941 0)
(0.0155612 -0.953311 0)
(0.0227056 -0.946125 0)
(0.0306583 -0.942461 0)
(0.0385752 -0.941285 0)
(0.0466279 -0.942145 0)
(0.0548203 -0.944927 0)
(0.0631517 -0.9496 0)
(0.071619 -0.95615 0)
(0.0802131 -0.96457 0)
(0.0888966 -0.97486 0)
(0.0975965 -0.987012 0)
(0.106237 -1.00097 0)
(0.11477 -1.01657 0)
(0.123153 -1.03351 0)
(0.131296 -1.05135 0)
(0.139067 -1.06955 0)
(0.146322 -1.08757 0)
(0.152872 -1.10514 0)
(0.158429 -1.12255 0)
(0.162663 -1.14085 0)
(0.165465 -1.16189 0)
(0.167022 -1.18779 0)
(0.00600816 -0.930585 0)
(0.0142313 -0.960662 0)
(0.020075 -0.953529 0)
(0.0271481 -0.949946 0)
(0.0341922 -0.948886 0)
(0.0414005 -0.949857 0)
(0.0486979 -0.952739 0)
(0.0560358 -0.957491 0)
(0.0633734 -0.964087 0)
(0.0706633 -0.972504 0)
(0.0778289 -0.982727 0)
(0.0847659 -0.994738 0)
(0.0913791 -1.00847 0)
(0.0976034 -1.02377 0)
(0.10337 -1.04034 0)
(0.108578 -1.05774 0)
(0.113115 -1.07538 0)
(0.116879 -1.09265 0)
(0.119693 -1.10921 0)
(0.121237 -1.12531 0)
(0.12114 -1.14204 0)
(0.119224 -1.16143 0)
(0.115553 -1.18599 0)
(0.00593594 -0.940571 0)
(0.0128862 -0.966592 0)
(0.0172401 -0.959856 0)
(0.0234949 -0.956514 0)
(0.0296948 -0.955646 0)
(0.0361172 -0.956721 0)
(0.042589 -0.959637 0)
(0.049016 -0.964358 0)
(0.0553206 -0.970848 0)
(0.0614169 -0.979074 0)
(0.0671902 -0.989011 0)
(0.0725075 -1.00063 0)
(0.0772539 -1.01387 0)
(0.0813399 -1.02858 0)
(0.0846663 -1.04447 0)
(0.0871175 -1.06113 0)
(0.0886083 -1.07792 0)
(0.089072 -1.09418 0)
(0.0883416 -1.10948 0)
(0.086083 -1.12398 0)
(0.0818907 -1.13879 0)
(0.075499 -1.15604 0)
(0.0667886 -1.17861 0)
(0.00586446 -0.949976 0)
(0.0114761 -0.970821 0)
(0.0141502 -0.965117 0)
(0.0197513 -0.96221 0)
(0.0251642 -0.961625 0)
(0.0308852 -0.962805 0)
(0.0366172 -0.965698 0)
(0.0422296 -0.970288 0)
(0.0476116 -0.976538 0)
(0.0526405 -0.984406 0)
(0.0571667 -0.993858 0)
(0.061033 -1.00486 0)
(0.0641041 -1.01735 0)
(0.0662612 -1.03118 0)
(0.0673687 -1.04611 0)
(0.0672942 -1.06171 0)
(0.0659693 -1.07736 0)
(0.0633541 -1.09235 0)
(0.0592943 -1.10614 0)
(0.0534647 -1.1188 0)
(0.0454422 -1.13134 0)
(0.0348574 -1.14598 0)
(0.0213869 -1.16588 0)
(0.00544848 -0.958793 0)
(0.00989287 -0.973125 0)
(0.0107555 -0.969453 0)
(0.0159947 -0.967145 0)
(0.0206863 -0.966927 0)
(0.0258098 -0.968207 0)
(0.0308964 -0.971024 0)
(0.035797 -0.975393 0)
(0.0403734 -0.981283 0)
(0.0444713 -0.988647 0)
(0.0479139 -0.997441 0)
(0.0505244 -1.00762 0)
(0.0521482 -1.01912 0)
(0.0526328 -1.03181 0)
(0.0518006 -1.04548 0)
(0.0494932 -1.05973 0)
(0.0456421 -1.07396 0)
(0.0402189 -1.08741 0)
(0.0330887 -1.09947 0)
(0.02396 -1.11004 0)
(0.0124081 -1.12001 0)
(-0.00202782 -1.13157 0)
(-0.0198974 -1.1481 0)
(0.00431223 -0.966826 0)
(0.00809121 -0.973502 0)
(0.00704938 -0.973094 0)
(0.0123607 -0.971463 0)
(0.016359 -0.971673 0)
(0.0209919 -0.973037 0)
(0.0255248 -0.975725 0)
(0.0298129 -0.979796 0)
(0.0336999 -0.985227 0)
(0.037009 -0.991965 0)
(0.0395459 -0.999951 0)
(0.0411209 -1.00913 0)
(0.0415597 -1.01943 0)
(0.0406734 -1.03075 0)
(0.0382391 -1.0429 0)
(0.0340633 -1.05552 0)
(0.0280576 -1.06803 0)
(0.0201876 -1.07968 0)
(0.0103368 -1.08976 0)
(-0.00174097 -1.09801 0)
(-0.0164592 -1.10512 0)
(-0.0343563 -1.1132 0)
(-0.0561655 -1.12572 0)
(0.00210754 -0.973483 0)
(0.0062816 -0.972356 0)
(0.00308198 -0.976191 0)
(0.00902849 -0.975283 0)
(0.0122758 -0.975966 0)
(0.0165179 -0.977383 0)
(0.0205767 -0.979892 0)
(0.0243399 -0.983603 0)
(0.027645 -0.988502 0)
(0.0303062 -0.994525 0)
(0.0321231 -1.0016 0)
(0.0328978 -1.00965 0)
(0.0324376 -1.01861 0)
(0.0305199 -1.02837 0)
(0.0268811 -1.03878 0)
(0.0212888 -1.0495 0)
(0.0136147 -1.06 0)
(0.00379131 -1.06955 0)
(-0.00829486 -1.07739 0)
(-0.0228587 -1.08308 0)
(-0.0402901 -1.0871 0)
(-0.061163 -1.09134 0)
(-0.0863724 -1.09924 0)
(-0.00187589 -0.977606 0)
(0.00493456 -0.970535 0)
(-0.00102499 -0.978758 0)
(0.00609503 -0.978763 0)
(0.00848699 -0.979907 0)
(0.0124514 -0.981308 0)
(0.0160997 -0.983586 0)
(0.0194049 -0.986896 0)
(0.0222184 -0.99122 0)
(0.0243611 -0.996481 0)
(0.0256359 -1.00259 0)
(0.0258429 -1.00945 0)
(0.0247782 -1.01699 0)
(0.0221997 -1.0251 0)
(0.017816 -1.03361 0)
(0.0113548 -1.04221 0)
(0.00262671 -1.05043 0)
(-0.00850135 -1.05759 0)
(-0.0221692 -1.06291 0)
(-0.0385731 -1.06582 0)
(-0.0580714 -1.06651 0)
(-0.0812535 -1.06657 0)
(-0.109158 -1.0693 0)
(-0.00936007 -0.97805 0)
(0.00431157 -0.968942 0)
(-0.00511948 -0.981018 0)
(0.00345177 -0.982248 0)
(0.00504572 -0.983561 0)
(0.00885201 -0.984841 0)
(0.012121 -0.986846 0)
(0.0150059 -0.989731 0)
(0.0173938 -0.993469 0)
(0.0191239 -0.997964 0)
(0.0200112 -1.00311 0)
(0.0198637 -1.0088 0)
(0.0184839 -1.01493 0)
(0.0156305 -1.02135 0)
(0.011 -1.02789 0)
(0.004282 -1.03426 0)
(-0.00478356 -1.04002 0)
(-0.0164083 -1.04457 0)
(-0.030782 -1.04711 0)
(-0.0481086 -1.04699 0)
(-0.0687248 -1.04411 0)
(-0.0932315 -1.03969 0)
(-0.122793 -1.03674 0)
(-0.0227955 -0.975343 0)
(0.00417584 -0.967756 0)
(-0.00931209 -0.983548 0)
(0.00101578 -0.985811 0)
(0.00216252 -0.986868 0)
(0.00575982 -0.987987 0)
(0.00864131 -0.989704 0)
(0.0111245 -0.992159 0)
(0.0131308 -0.99532 0)
(0.0145256 -0.999083 0)
(0.015147 -1.00332 0)
(0.0148283 -1.00791 0)
(0.0133965 -1.0127 0)
(0.0106288 -1.01751 0)
(0.00622697 -1.02215 0)
(-0.000135885 -1.02631 0)
(-0.00876318 -1.02958 0)
(-0.01993 -1.03138 0)
(-0.0338951 -1.03097 0)
(-0.050912 -1.02762 0)
(-0.0713241 -1.02101 0)
(-0.0957208 -1.01187 0)
(-0.125339 -1.00278 0)
(-0.0444654 -0.969803 0)
(0.00495054 -0.967814 0)
(-0.0138835 -0.986377 0)
(-0.000991186 -0.989346 0)
(-0.00013438 -0.989951 0)
(0.00311303 -0.990841 0)
(0.00564425 -0.992226 0)
(0.00774765 -0.994243 0)
(0.00939419 -0.99686 0)
(0.010499 -0.999964 0)
(0.0109432 -1.00341 0)
(0.0105973 -1.00702 0)
(0.00932226 -1.01064 0)
(0.00692969 -1.01404 0)
(0.00315965 -1.01698 0)
(-0.00228775 -1.01913 0)
(-0.00971807 -1.02005 0)
(-0.0194412 -1.01919 0)
(-0.0317708 -1.01584 0)
(-0.0470073 -1.00925 0)
(-0.0654971 -0.998863 0)
(-0.087793 -0.984955 0)
(-0.115096 -0.969431 0)
(-0.0788642 -0.953284 0)
(0.00813535 -0.975844 0)
(-0.0188337 -0.990001 0)
(-0.00292727 -0.993238 0)
(-0.00187095 -0.993143 0)
(0.000989813 -0.993509 0)
(0.00317802 -0.994441 0)
(0.00487879 -0.996014 0)
(0.00615085 -0.998155 0)
(0.00698045 -1.00072 0)
(0.00729859 -1.00352 0)
(0.00701569 -1.00639 0)
(0.00603508 -1.00909 0)
(0.00422405 -1.0114 0)
(0.00138776 -1.01299 0)
(-0.00271356 -1.01351 0)
(-0.00834063 -1.01249 0)
(-0.0157711 -1.00937 0)
(-0.0252981 -1.00344 0)
(-0.0372196 -0.993939 0)
(-0.0518629 -0.980172 0)
(-0.0696886 -0.961942 0)