/*--------------------------------*- C++ -*----------------------------------*\
| =========                 |                                                 |
| \\      /  F ield         | OpenFOAM: The Open Source CFD Toolbox           |
|  \\    /   O peration     | Version:  v2012                                 |
|   \\  /    A nd           | Website:  www.openfoam.com                      |
|    \\/     M anipulation  |                                                 |
\*---------------------------------------------------------------------------*/
FoamFile
{
    version     2.0;
    format      ascii;
    class       surfaceScalarField;
    location    "0.8";
    object      alphaPhi0.water;
}
// * * * * * * * * * * * * * * * * * * * * * * * * * * * * * * * * * * * * * //

dimensions      [0 3 -1 0 0 0 0];
oriented        oriented;


internalField   nonuniform List<scalar> 
4432
(
-5.17729e-06
5.17729e-06
-9.77801e-06
4.60071e-06
-1.23715e-05
2.59345e-06
-1.38617e-05
1.49019e-06
-1.49836e-05
1.12193e-06
-1.60098e-05
1.02625e-06
-1.69734e-05
9.63608e-07
-1.78356e-05
8.62171e-07
-1.85506e-05
7.14984e-07
-1.90842e-05
5.33597e-07
-1.94177e-05
3.33453e-07
-1.95412e-05
1.23573e-07
-1.94504e-05
-9.08271e-08
-1.91643e-05
-2.8613e-07
-1.87056e-05
-4.5861e-07
-1.8093e-05
-6.12595e-07
-1.73267e-05
-7.65182e-07
-1.59768e-05
-9.90738e-07
-1.43402e-05
-1.25129e-06
-1.22491e-05
-2.11733e-06
-8.75945e-06
-3.51586e-06
-4.05368e-06
-4.85757e-06
-4.054e-06
-6.03631e-06
1.12136e-05
-9.71128e-06
8.27568e-06
-1.17858e-05
4.66795e-06
-1.33329e-05
3.03726e-06
-1.47353e-05
2.52441e-06
-1.60388e-05
2.32968e-06
-1.72057e-05
2.13056e-06
-1.81944e-05
1.85082e-06
-1.89765e-05
1.49713e-06
-1.95394e-05
1.09653e-06
-1.98865e-05
6.80475e-07
-2.00311e-05
2.68175e-07
-1.99814e-05
-1.40512e-07
-1.97231e-05
-5.44407e-07
-1.92467e-05
-9.35051e-07
-1.85405e-05
-1.31874e-06
-1.75433e-05
-1.76244e-06
-1.60914e-05
-2.40737e-06
-1.36547e-05
-3.41112e-06
-1.05762e-05
-5.09107e-06
-6.69515e-06
-7.45915e-06
-2.78986e-06
-9.12551e-06
-6.84399e-06
-5.40609e-06
1.66197e-05
-8.47672e-06
1.13463e-05
-1.06403e-05
6.8315e-06
-1.24729e-05
4.86987e-06
-1.41321e-05
4.18367e-06
-1.56316e-05
3.82913e-06
-1.69419e-05
3.4409e-06
-1.80374e-05
2.94633e-06
-1.89036e-05
2.36332e-06
-1.95371e-05
1.72995e-06
-1.99458e-05
1.08922e-06
-2.01419e-05
4.64266e-07
-2.01266e-05
-1.55807e-07
-1.98851e-05
-7.85923e-07
-1.94013e-05
-1.41881e-06
-1.86518e-05
-2.06828e-06
-1.75648e-05
-2.84947e-06
-1.59892e-05
-3.98297e-06
-1.3661e-05
-5.73927e-06
-1.03663e-05
-8.47144e-06
-6.17648e-06
-1.19075e-05
-1.81741e-06
-1.36686e-05
-8.66139e-06
-4.6788e-06
2.12985e-05
-7.47674e-06
1.41443e-05
-9.76463e-06
9.11938e-06
-1.18291e-05
6.93437e-06
-1.37072e-05
6.06175e-06
-1.53741e-05
5.49598e-06
-1.68008e-05
4.86758e-06
-1.79754e-05
4.12097e-06
-1.88965e-05
3.28443e-06
-1.95699e-05
2.40331e-06
-2.00102e-05
1.52955e-06
-2.0233e-05
6.87115e-07
-2.02383e-05
-1.50596e-07
-2.00084e-05
-1.01575e-06
-1.95244e-05
-1.90286e-06
-1.87629e-05
-2.82982e-06
-1.76588e-05
-3.95351e-06
-1.60677e-05
-5.57406e-06
-1.37626e-05
-8.04436e-06
-1.05028e-05
-1.17313e-05
-6.11949e-06
-1.62908e-05
-1.37854e-06
-1.84096e-05
-1.00407e-05
-3.96343e-06
2.52619e-05
-6.63062e-06
1.68115e-05
-9.05698e-06
1.15457e-05
-1.13432e-05
9.2206e-06
-1.34291e-05
8.14764e-06
-1.52498e-05
7.31668e-06
-1.67774e-05
6.39521e-06
-1.80144e-05
5.35792e-06
-1.8972e-05
4.24209e-06
-1.96659e-05
3.09719e-06
-2.01196e-05
1.98326e-06
-2.03553e-05
9.22785e-07
-2.03732e-05
-1.32737e-07
-2.01526e-05
-1.23628e-06
-1.96755e-05
-2.37998e-06
-1.89291e-05
-3.57626e-06
-1.78674e-05
-5.01518e-06
-1.63706e-05
-7.07086e-06
-1.42405e-05
-1.01745e-05
-1.12063e-05
-1.47655e-05
-6.9333e-06
-2.05638e-05
-1.85327e-06
-2.3488e-05
-1.18926e-05
-3.2396e-06
2.85015e-05
-5.8687e-06
1.94406e-05
-8.48351e-06
1.41606e-05
-1.1009e-05
1.17461e-05
-1.32998e-05
1.04384e-05
-1.52621e-05
9.27893e-06
-1.68756e-05
8.00871e-06
-1.81587e-05
6.64102e-06
-1.91355e-05
5.21893e-06
-1.98322e-05
3.79385e-06
-2.02835e-05
2.43464e-06
-2.05208e-05
1.16006e-06
-2.0545e-05
-1.0852e-07
-2.03321e-05
-1.4492e-06
-1.98681e-05
-2.84398e-06
-1.91593e-05
-4.28502e-06
-1.81889e-05
-5.98567e-06
-1.68702e-05
-8.38947e-06
-1.50473e-05
-1.19974e-05
-1.24835e-05
-1.73293e-05
-8.81566e-06
-2.42316e-05
-3.82918e-06
-2.84703e-05
-1.57227e-05
-2.50771e-06
3.10092e-05
-5.17623e-06
2.21091e-05
-8.04644e-06
1.70308e-05
-1.08381e-05
1.45378e-05
-1.33302e-05
1.29305e-05
-1.54183e-05
1.1367e-05
-1.70991e-05
9.68943e-06
-1.84086e-05
7.95055e-06
-1.93844e-05
6.19469e-06
-2.00647e-05
4.47416e-06
-2.04982e-05
2.86814e-06
-2.07268e-05
1.38872e-06
-2.07519e-05
-8.34851e-08
-2.05449e-05
-1.65617e-06
-2.00988e-05
-3.29012e-06
-1.94454e-05
-4.93839e-06
-1.86031e-05
-6.82794e-06
-1.75215e-05
-9.47108e-06
-1.60938e-05
-1.34252e-05
-1.41873e-05
-1.92357e-05
-1.16445e-05
-2.67743e-05
-7.51969e-06
-3.25966e-05
-2.32461e-05
-1.741e-06
3.27502e-05
-4.54312e-06
2.49112e-05
-7.75246e-06
2.02401e-05
-1.08392e-05
1.76245e-05
-1.3523e-05
1.56143e-05
-1.5715e-05
1.3559e-05
-1.74384e-05
1.14129e-05
-1.87491e-05
9.26118e-06
-1.96995e-05
7.14512e-06
-2.03429e-05
5.11754e-06
-2.07436e-05
3.26881e-06
-2.09548e-05
1.59998e-06
-2.09762e-05
-6.20787e-08
-2.07739e-05
-1.85852e-06
-2.0349e-05
-3.71499e-06
-1.97642e-05
-5.52319e-06
-1.9077e-05
-7.51515e-06
-1.82696e-05
-1.02785e-05
-1.72782e-05
-1.44165e-05
-1.60821e-05
-2.04319e-05
-1.47764e-05
-2.80799e-05
-1.18371e-05
-3.55367e-05
-3.50846e-05
1.86051e-06
-3.59764e-06
-3.86364e-05
4.04295e-05
-8.08685e-05
4.22158e-05
-0.000102603
2.16754e-05
-0.000105653
2.87748e-06
-0.000103473
-2.38301e-06
-0.000103222
-2.49772e-07
-0.000103237
7.86753e-07
-0.000101324
-1.21983e-06
-9.63542e-05
-5.11072e-06
-8.72175e-05
-9.69897e-06
-7.32913e-05
-1.4245e-05
-5.52019e-05
-1.66548e-05
-3.99634e-05
-1.42174e-05
-2.83666e-05
-1.14445e-05
-1.60005e-05
-1.2204e-05
-2.12059e-06
-1.37105e-05
6.79798e-06
-8.62756e-06
6.75108e-06
-2.99614e-05
2.69087e-05
-7.57291e-05
8.63154e-05
-0.00010157
6.80474e-05
-0.000105234
2.53375e-05
-0.000102458
1.02344e-07
-9.99596e-05
-4.87977e-06
-9.97182e-05
-4.89777e-07
-9.98984e-05
9.70277e-07
-9.85188e-05
-2.59028e-06
-9.42735e-05
-9.33886e-06
-8.6061e-05
-1.78954e-05
-7.38283e-05
-2.64682e-05
-5.94716e-05
-3.10124e-05
-4.67826e-05
-2.68975e-05
-3.53516e-05
-2.22553e-05
-2.30239e-05
-2.43641e-05
-1.00069e-05
-2.6278e-05
2.92595e-07
-1.85153e-05
7.21199e-06
-4.63206e-05
7.30614e-05
-8.13004e-05
0.000121246
-9.42241e-05
8.0955e-05
-9.40653e-05
2.51709e-05
-9.30432e-05
-1.675e-06
-9.14644e-05
-6.45708e-06
-9.20059e-05
5.3195e-08
-9.29977e-05
1.96559e-06
-9.24375e-05
-3.14939e-06
-8.89072e-05
-1.28598e-05
-8.18851e-05
-2.49081e-05
-7.14211e-05
-3.69327e-05
-5.91578e-05
-4.3267e-05
-4.89227e-05
-3.71251e-05
-4.03807e-05
-3.08026e-05
-2.92114e-05
-3.5466e-05
-1.57505e-05
-3.93119e-05
-5.5058e-06
-2.88428e-05
1.528e-06
-4.58089e-05
0.000118221
-7.08722e-05
0.000146236
-6.93962e-05
7.13072e-05
-7.60955e-05
1.3229e-05
-7.86948e-05
-3.25313e-06
-7.92047e-05
-5.94862e-06
-8.23005e-05
3.15081e-06
-8.4789e-05
4.78568e-06
-8.51217e-05
-2.42565e-06
-8.22777e-05
-1.55811e-05
-7.61922e-05
-3.09765e-05
-6.74957e-05
-4.56366e-05
-5.70452e-05
-5.37118e-05
-4.92637e-05
-4.49111e-05
-4.3207e-05
-3.6881e-05
-3.44946e-05
-4.42125e-05
-2.09946e-05
-5.2689e-05
-8.59974e-06
-4.13628e-05
-7.19686e-06
-3.74962e-05
0.00015474
-4.17818e-05
0.000146236
-2.63478e-05
2.66511e-05
-3.85573e-05
3.9315e-06
-5.30818e-05
-4.47845e-06
-6.10461e-05
-3.06889e-06
-6.71906e-05
9.34541e-06
-6.18212e-05
7.66673e-06
-5.18841e-05
3.22788e-07
-5.22652e-05
-4.70163e-06
-6.48237e-05
-1.75272e-05
-6.14522e-05
-4.98435e-05
-5.32165e-05
-6.19895e-05
-4.83432e-05
-4.98123e-05
-4.50701e-05
-4.01971e-05
-3.8037e-05
-5.12576e-05
-2.5972e-05
-6.47246e-05
-1.0587e-05
-5.75539e-05
-1.79018e-05
-2.81896e-05
0.000181952
-1.46347e-05
0.000127074
-9.82119e-06
2.05477e-05
-1.14824e-05
4.86783e-06
-1.93575e-05
-4.33375e-06
-2.59437e-05
-2.71409e-07
-3.11345e-05
8.78467e-06
-1.06502e-05
6.43954e-06
-9.02909e-06
1.28493e-06
-1.15752e-05
-2.31453e-06
-1.96684e-05
-8.18416e-06
-4.77006e-05
-2.65929e-05
-4.67757e-05
-6.44706e-05
-4.58816e-05
-5.0734e-05
-4.58486e-05
-4.02832e-05
-4.02171e-05
-5.68642e-05
-2.88357e-05
-7.60455e-05
-1.2471e-05
-7.44463e-05
-3.18385e-05
-1.84108e-05
0.000198979
-4.3556e-06
9.60421e-05
-1.6453e-06
1.70409e-05
-1.06376e-06
3.92647e-06
1.76827e-07
-3.37058e-06
-1.96301e-06
1.5551e-06
-3.73062e-06
2.08392e-05
-4.08232e-06
6.77154e-06
-5.97917e-06
2.97732e-06
-6.94041e-06
-1.44819e-06
-8.32108e-06
-6.96254e-06
-2.22098e-05
-1.60457e-05
-2.86478e-05
-5.37901e-05
-3.66546e-05
-2.9452e-05
-4.45991e-05
-3.19713e-05
-4.03622e-05
-6.09289e-05
-2.97881e-05
-8.63835e-05
-1.41592e-05
-8.98488e-05
-4.5786e-05
-9.70929e-06
0.000207043
1.82462e-06
8.07997e-05
3.44662e-06
1.50649e-05
4.55759e-06
2.47743e-06
1.81411e-05
-6.9193e-06
1.57254e-05
3.73404e-06
7.95525e-06
3.18287e-05
-6.74113e-07
2.83124e-05
-3.56725e-06
5.74393e-06
-5.35645e-06
1.36553e-07
-6.05144e-06
-6.44555e-06
-1.26416e-05
-9.69445e-06
-8.30225e-06
-4.92983e-05
-1.13511e-05
-9.3939e-06
-3.19492e-05
-1.20617e-05
-3.58459e-05
-4.99717e-05
-2.887e-05
-8.84755e-05
-1.51045e-05
-0.000103202
-6.05148e-05
-1.79592e-06
3.17809e-05
-8.12321e-06
2.57816e-05
-1.60167e-05
2.18249e-05
-2.3548e-05
2.16926e-05
-2.98277e-05
2.1894e-05
-3.47462e-05
1.84775e-05
-3.84379e-05
1.51046e-05
-4.11151e-05
1.19383e-05
-4.29637e-05
8.99372e-06
-4.41477e-05
6.30154e-06
-4.48495e-05
3.97065e-06
-4.52227e-05
1.97312e-06
-4.52494e-05
-3.50976e-08
-4.48324e-05
-2.27549e-06
-4.40004e-05
-4.54698e-06
-4.30104e-05
-6.51313e-06
-4.21362e-05
-8.38935e-06
-4.1425e-05
-1.09894e-05
-4.0916e-05
-1.49252e-05
-4.08009e-05
-2.05462e-05
-4.08798e-05
-2.80002e-05
-3.93172e-05
-3.71007e-05
-4.20152e-05
-3.23899e-05
-1.70087e-06
4.12796e-07
-4.23805e-06
3.87566e-07
-7.58056e-06
4.93858e-07
-1.1689e-05
1.02368e-06
-1.671e-05
2.12698e-06
-2.22405e-05
3.41736e-06
-2.76397e-05
4.36524e-06
-3.25727e-05
4.77365e-06
-3.70743e-05
4.63601e-06
-4.101e-05
4.01748e-06
-4.367e-05
3.02311e-06
-4.46772e-05
1.73799e-06
-4.47492e-05
-2.34749e-08
-4.44512e-05
-2.50839e-06
-4.37567e-05
-5.23599e-06
-4.31767e-05
-7.09268e-06
-4.32999e-05
-8.26527e-06
-4.41994e-05
-1.00883e-05
-4.6142e-05
-1.29801e-05
-4.95662e-05
-1.71185e-05
-5.5219e-05
-2.23429e-05
-6.53005e-05
-2.70102e-05
-2.82006e-05
-7.90705e-05
-1.4451e-07
2.2214e-08
-1.76879e-07
7.15811e-09
-2.82857e-07
8.0437e-09
-4.45671e-07
3.66326e-09
-7.82242e-07
-5.45728e-09
-1.44962e-06
-1.70383e-08
-2.52703e-06
-2.2606e-08
-4.01419e-06
-1.18057e-08
-5.77904e-06
-1.99044e-09
-7.65383e-06
1.15536e-08
-9.73537e-06
2.65872e-08
-1.26179e-05
7.09202e-08
-1.66541e-05
-1.48579e-10
-2.10903e-05
-1.85214e-09
-2.53265e-05
-2.32475e-08
-2.93701e-05
-2.55139e-07
-3.28635e-05
-1.52585e-06
-3.69237e-05
-2.93455e-06
-4.3417e-05
-4.3746e-06
-5.27186e-05
-7.23692e-06
-6.26814e-05
-1.25619e-05
-7.20658e-05
-1.70781e-05
-2.03339e-05
-7.92018e-05
2.16907e-09
2.55784e-09
-3.35145e-09
1.1118e-09
-9.51471e-09
1.60064e-09
-1.9458e-08
1.38845e-09
-3.74141e-08
1.06207e-09
-6.30297e-08
4.16166e-10
-9.09608e-08
4.68059e-11
-1.05478e-07
-2.24976e-11
-1.08562e-07
7.05135e-11
-9.74646e-08
1.66146e-10
-7.10682e-08
2.39676e-10
-1.3173e-11
1.20335e-10
-1.61776e-10
-1.56232e-14
-2.01328e-09
-2.09022e-12
-2.52507e-08
-2.94252e-11
-2.80195e-07
-4.22846e-10
-1.60583e-06
2.57672e-10
-3.82997e-06
-1.8759e-09
-7.48412e-06
-3.09557e-08
-1.66442e-05
-1.55538e-07
-3.04433e-05
-7.64412e-07
-4.18366e-05
-1.98264e-06
-6.60983e-06
-6.47908e-05
6.35324e-10
2.04665e-10
4.1495e-10
1.41669e-10
4.56501e-10
1.97852e-10
3.80897e-10
1.65787e-10
2.18931e-10
1.05923e-10
-8.68386e-11
3.75534e-11
-4.22531e-10
-5.05951e-12
-5.85438e-10
-1.90035e-11
-5.30054e-10
-1.27802e-11
-3.59682e-10
-2.28886e-12
-1.19449e-10
1.50951e-12
-8.62809e-14
8.73619e-13
-1.06706e-13
4.65874e-16
-2.29038e-12
-5.05762e-16
-3.31198e-11
-5.505e-14
-4.74197e-10
-5.28841e-14
-4.29134e-10
9.15411e-14
-4.38373e-09
-7.93533e-11
-3.77834e-08
1.2671e-11
-1.98777e-07
9.0381e-10
-9.97399e-07
1.89653e-09
-4.3079e-07
1.66002e-11
-9.97889e-07
-1.52131e-05
3.41519e-11
1.64046e-11
4.63701e-11
1.36471e-11
8.94035e-11
1.86436e-11
1.11331e-10
1.54877e-11
1.03213e-10
9.08268e-12
7.74905e-11
2.88001e-12
4.11409e-11
-7.77136e-13
1.26398e-11
-1.79388e-12
-7.01415e-13
-1.17951e-12
-2.49237e-12
-3.77852e-13
-8.23013e-13
-4.54854e-14
-1.32103e-14
5.48331e-14
-1.32531e-14
6.46727e-16
-2.37501e-14
1.00272e-14
-4.67584e-13
9.80891e-14
-3.98727e-12
1.0155e-12
-4.04212e-11
9.2971e-12
-5.27172e-10
1.55386e-10
-4.13487e-09
1.68264e-09
-2.67683e-08
1.15289e-08
-9.74837e-08
3.89562e-08
-3.57153e-07
4.22026e-08
-6.94474e-07
-1.43248e-06
2.22424e-12
1.28622e-12
4.27424e-12
1.14581e-12
8.90692e-12
1.53484e-12
1.14037e-11
1.28427e-12
1.04271e-11
7.60906e-13
7.76581e-12
2.74236e-13
4.4517e-12
-3.06853e-15
1.83688e-12
-7.2485e-14
4.70149e-13
-4.4715e-14
5.15511e-14
3.10896e-14
-7.62641e-15
9.7268e-15
9.4573e-15
3.77494e-14
1.11732e-13
-1.67049e-14
-1.85957e-13
-1.07417e-13
-1.73395e-12
1.25326e-13
-3.99006e-12
1.8747e-12
-2.5853e-11
1.45062e-11
-1.68815e-10
1.40607e-10
-8.09544e-10
1.12753e-09
-3.65519e-09
6.95512e-09
-3.18913e-08
2.8266e-08
-1.72022e-07
4.81403e-08
-4.33451e-07
-8.13565e-07
1.84578e-13
9.40004e-14
3.67172e-13
8.94935e-14
7.31362e-13
1.1734e-13
9.24846e-13
1.02535e-13
8.31426e-13
7.32964e-14
6.08074e-13
3.8571e-14
3.37116e-13
5.00453e-14
1.45132e-13
3.8731e-14
7.5824e-14
1.37949e-14
1.32844e-14
9.36292e-14
1.92635e-15
2.10849e-14
3.07587e-14
-1.11043e-13
1.50415e-13
-2.06233e-13
1.92875e-13
-3.49333e-13
-1.38063e-12
-2.74678e-13
-2.4565e-13
7.39725e-13
2.83311e-12
6.36753e-12
2.54659e-11
5.49109e-11
1.66868e-10
4.69092e-10
3.95507e-10
3.15898e-09
-4.84187e-09
1.57284e-08
-6.2403e-08
4.13933e-08
-1.99818e-07
-5.21534e-07
1.2477e-14
7.68957e-15
2.58007e-14
7.9378e-15
4.99795e-14
1.01898e-14
6.31655e-14
1.07283e-14
5.53461e-14
1.12215e-14
5.11897e-14
1.45859e-14
4.29576e-14
8.13325e-15
1.77881e-14
6.39005e-14
8.79974e-15
2.27833e-14
-1.52634e-14
-4.88324e-14
-2.25006e-14
-1.16493e-13
-5.94875e-15
-2.01562e-13
6.0943e-14
-2.72419e-13
1.42171e-13
-3.83943e-13
-2.32804e-13
-4.13847e-13
1.88262e-14
4.6549e-13
2.13078e-12
1.61656e-12
2.60251e-11
1.30514e-11
1.93356e-10
1.20746e-10
1.10881e-09
9.25259e-10
3.70836e-09
5.89801e-09
-1.03106e-08
2.6226e-08
-1.96884e-08
-3.23389e-07
7.13168e-16
5.21156e-16
1.56779e-15
5.574e-16
3.02522e-15
8.86784e-16
4.21171e-15
1.29501e-15
6.5137e-15
1.5024e-15
4.76205e-15
1.63376e-14
3.60705e-15
9.28825e-15
-5.11613e-15
-1.29009e-14
-1.52871e-14
-4.05027e-14
-2.59134e-14
-7.93004e-14
-2.84032e-14
-1.16769e-13
-2.04932e-14
-1.58069e-13
1.41938e-15
-1.99568e-13
4.27837e-14
-2.65157e-13
2.36369e-14
-3.18572e-13
-5.67564e-13
-9.52956e-14
7.00086e-13
2.87091e-13
7.52519e-12
1.87418e-12
6.36115e-11
1.82239e-11
4.5726e-10
1.52849e-10
2.82938e-09
1.14897e-09
1.00947e-08
7.78297e-09
1.98294e-08
-8.18562e-08
3.83572e-17
8.29739e-17
9.35273e-17
9.62838e-17
2.18116e-16
1.15407e-16
4.07281e-16
3.87187e-16
4.23065e-16
1.48662e-15
-4.77813e-16
-1.45581e-15
-2.57495e-15
-7.18507e-15
-6.11613e-15
-1.64873e-14
-1.04949e-14
-2.89661e-14
-1.4856e-14
-4.50067e-14
-1.69908e-14
-6.19803e-14
-1.59181e-14
-8.0675e-14
-1.07954e-14
-1.01964e-13
-1.22269e-15
-1.33952e-13
1.02755e-14
-1.70435e-13
-3.76658e-14
-1.42259e-13
5.91371e-14
1.41556e-13
8.94128e-13
2.09727e-13
7.80692e-12
2.20863e-12
5.82631e-11
2.13907e-11
4.58406e-10
1.69504e-10
3.81812e-09
1.06053e-09
3.38528e-09
1.14635e-09
2.1085e-18
5.99669e-18
5.63535e-18
7.20526e-18
1.75955e-17
1.01513e-17
1.8969e-17
9.14121e-17
-9.59867e-17
-3.73211e-16
-4.61059e-16
-1.54021e-15
-1.17716e-15
-3.55961e-15
-2.30583e-15
-6.62251e-15
-3.81051e-15
-1.09076e-14
-5.49502e-15
-1.65069e-14
-6.86471e-15
-2.29415e-14
-7.61228e-15
-3.03485e-14
-7.56232e-15
-3.93223e-14
-6.83018e-15
-5.25125e-14
-4.97387e-15
-6.97433e-14
-1.80651e-15
-7.64029e-14
-1.83706e-15
1.87043e-14
1.31075e-14
5.31536e-14
8.14296e-14
7.83797e-13
2.48445e-13
8.45616e-12
1.29721e-12
6.53945e-11
1.52505e-11
3.53922e-10
9.79327e-10
-1.13947e-09
1.00502e-19
3.06493e-19
3.80133e-19
3.64888e-19
8.71478e-19
6.47095e-18
-5.25184e-18
-2.83725e-17
-3.85869e-17
-1.65799e-16
-1.25769e-16
-4.57784e-16
-2.95875e-16
-9.59354e-16
-5.7802e-16
-1.74413e-15
-9.93422e-16
-2.90466e-15
-1.53011e-15
-4.50718e-15
-2.1085e-15
-6.50005e-15
-2.66529e-15
-8.92257e-15
-3.17551e-15
-1.19436e-14
-3.77458e-15
-1.63867e-14
-4.49109e-15
-2.27809e-14
-4.84933e-15
-2.83286e-14
-1.80932e-15
-1.15549e-14
3.78223e-14
1.17839e-14
5.2602e-13
1.68314e-13
5.40068e-12
2.0186e-12
4.0553e-11
1.65595e-11
2.04282e-10
9.58359e-11
3.55633e-10
4.78666e-10
4.54863e-21
1.6216e-20
2.23261e-20
1.92577e-20
-3.59289e-20
-3.03244e-19
-1.55829e-18
-9.36562e-18
-7.73667e-18
-3.63156e-17
-2.33478e-17
-9.12142e-17
-5.50856e-17
-1.88092e-16
-1.12032e-16
-3.48119e-16
-2.05228e-16
-6.00922e-16
-3.42257e-16
-9.73753e-16
-5.19576e-16
-1.47519e-15
-7.31969e-16
-2.12011e-15
-9.77833e-16
-2.93544e-15
-1.32097e-15
-4.14063e-15
-1.85284e-15
-6.04282e-15
-2.46368e-15
-8.22476e-15
-1.87876e-15
-6.23936e-15
7.86193e-15
2.24772e-15
1.38859e-13
2.22004e-14
1.59175e-12
3.43076e-13
1.28429e-11
3.07428e-12
7.3495e-11
1.8417e-11
7.36811e-11
3.04513e-10
2.10904e-22
8.77235e-22
1.03095e-21
7.62547e-21
-1.929e-20
-1.8161e-19
-2.62064e-19
-1.71882e-18
-1.16466e-18
-5.8509e-18
-3.45155e-18
-1.41608e-17
-8.34773e-18
-2.93435e-17
-1.78767e-17
-5.59283e-17
-3.51578e-17
-1.01005e-16
-6.35545e-17
-1.72055e-16
-1.05679e-16
-2.75274e-16
-1.63318e-16
-4.1579e-16
-2.36689e-16
-5.94863e-16
-3.4505e-16
-8.59199e-16
-5.34922e-16
-1.31549e-15
-8.04251e-16
-1.93402e-15
-8.22114e-16
-1.90309e-15
1.00182e-15
4.25391e-16
2.02671e-14
2.10681e-15
2.91867e-13
4.24639e-14
2.58235e-12
4.48925e-13
1.55499e-11
2.79578e-12
1.16153e-11
7.00498e-11
1.65834e-23
3.83306e-22
2.68139e-23
4.72645e-22
-3.49047e-21
-3.55092e-20
-3.52298e-20
-2.4499e-19
-1.48173e-19
-7.75387e-19
-4.347e-19
-1.82522e-18
-1.07715e-18
-3.80388e-18
-2.42516e-18
-7.47067e-18
-5.11502e-18
-1.41505e-17
-9.97688e-18
-2.53709e-17
-1.80345e-17
-4.29304e-17
-3.02126e-17
-6.82295e-17
-4.66118e-17
-1.00724e-16
-7.14329e-17
-1.4827e-16
-1.19104e-16
-2.3728e-16
-1.96607e-16
-3.74051e-16
-2.38915e-16
-4.30223e-16
1.22965e-16
6.35103e-17
1.95333e-15
2.62046e-16
3.67611e-14
4.14946e-15
3.89358e-13
5.02062e-14
2.50505e-12
3.48956e-13
1.50344e-12
1.15366e-11
4.13916e-25
1.9785e-23
-1.10731e-23
-2.04826e-22
-5.00406e-22
-5.28092e-21
-4.22571e-21
-3.01032e-20
-1.68791e-20
-8.92872e-20
-4.83547e-20
-2.02334e-19
-1.21264e-19
-4.20244e-19
-2.84671e-19
-8.46332e-19
-6.4032e-19
-1.67907e-18
-1.33794e-18
-3.16322e-18
-2.60789e-18
-5.65511e-18
-4.69178e-18
-9.45155e-18
-7.61643e-18
-1.43789e-17
-1.20884e-17
-2.14934e-17
-2.13357e-17
-3.57797e-17
-3.80708e-17
-6.01159e-17
-5.22007e-17
-7.72731e-17
9.169e-18
2.14058e-18
2.05357e-16
2.62289e-17
3.30478e-15
4.08336e-16
4.28559e-14
4.90102e-15
3.17574e-13
3.61332e-14
1.57878e-13
1.52988e-12
-1.70891e-25
-7.93595e-24
-3.21643e-24
-5.90587e-23
-6.52805e-23
-6.84693e-22
-4.73391e-22
-3.33697e-21
-1.77029e-21
-9.19683e-21
-4.84084e-21
-1.97008e-20
-1.20658e-20
-4.02065e-20
-2.91911e-20
-8.23864e-20
-6.94664e-20
-1.70538e-19
-1.54206e-19
-3.36353e-19
-3.21477e-19
-6.3351e-19
-6.16247e-19
-1.11131e-18
-1.0446e-18
-1.73998e-18
-1.70194e-18
-2.63453e-18
-3.14502e-18
-4.53875e-18
-6.00337e-18
-8.0821e-18
-9.04208e-18
-1.13363e-17
-7.94768e-19
-9.24457e-19
2.11665e-17
2.48025e-18
3.24049e-16
3.78977e-17
3.89733e-15
4.51524e-16
3.10962e-14
3.48184e-15
1.51025e-14
1.59387e-13
-5.13851e-26
-2.17523e-24
-6.02591e-25
-1.04675e-23
-7.97447e-24
-8.00887e-23
-5.00089e-23
-3.38594e-22
-1.72317e-22
-8.58139e-22
-4.39585e-22
-1.70581e-21
-1.06766e-21
-3.36649e-21
-2.6279e-21
-6.95327e-21
-6.55547e-21
-1.49316e-20
-1.53263e-20
-3.06745e-20
-3.38976e-20
-6.06028e-20
-6.87484e-20
-1.11224e-19
-1.21005e-19
-1.78907e-19
-2.01264e-19
-2.73863e-19
-3.8615e-19
-4.85748e-19
-7.82083e-19
-9.11484e-19
-1.27222e-18
-1.37385e-18
-2.37923e-19
-2.37625e-19
2.01472e-18
2.30587e-19
3.08106e-17
3.07576e-18
3.67256e-16
3.68217e-17
3.03447e-15
2.91347e-16
1.28092e-15
1.47713e-14
-1.01132e-26
-3.76696e-25
-9.23227e-26
-1.46923e-24
-9.10366e-25
-8.52692e-24
-4.96048e-24
-3.15725e-23
-1.5567e-23
-7.30203e-23
-3.63058e-23
-1.32438e-22
-8.42156e-23
-2.48455e-22
-2.08168e-22
-5.11966e-22
-5.39053e-22
-1.13233e-21
-1.3156e-21
-2.40751e-21
-3.06191e-21
-4.96075e-21
-6.52511e-21
-9.48208e-21
-1.18682e-20
-1.5628e-20
-2.00717e-20
-2.41356e-20
-3.97054e-20
-4.38355e-20
-8.47075e-20
-8.61477e-20
-1.47017e-19
-1.37923e-19
-4.03449e-20
-3.48984e-20
1.71706e-19
1.87703e-20
2.56131e-18
2.12969e-19
3.10906e-17
2.5713e-18
2.61483e-16
2.06013e-17
9.08357e-17
1.28194e-15
-1.63033e-27
-5.29419e-26
-1.23283e-26
-1.77106e-25
-9.7086e-26
-8.36161e-25
-4.62114e-25
-2.73075e-24
-1.31052e-24
-5.72961e-24
-2.73441e-24
-9.29645e-24
-5.925e-24
-1.62444e-23
-1.45215e-23
-3.30275e-23
-3.86426e-23
-7.45977e-23
-9.75607e-23
-1.62906e-22
-2.36917e-22
-3.47591e-22
-5.26714e-22
-6.87803e-22
-9.85139e-22
-1.15698e-21
-1.688e-21
-1.79755e-21
-3.42069e-21
-3.32305e-21
-7.63304e-21
-6.79261e-21
-1.39947e-20
-1.14352e-20
-4.9468e-21
-3.71385e-21
1.25359e-20
1.30092e-21
1.81438e-19
1.23597e-20
2.24025e-18
1.5044e-19
1.9054e-17
1.20803e-18
5.67556e-18
9.35801e-17
-2.26678e-28
-6.46928e-27
-1.47151e-27
-1.9064e-26
-9.69383e-27
-7.64834e-26
-4.06564e-26
-2.22062e-25
-1.03732e-25
-4.20906e-25
-1.87948e-25
-5.9335e-25
-3.71489e-25
-9.4373e-25
-8.92011e-25
-1.8721e-24
-2.41411e-24
-4.27655e-24
-6.24553e-24
-9.50742e-24
-1.56818e-23
-2.08251e-23
-3.60849e-23
-4.23342e-23
-6.90129e-23
-7.2275e-23
-1.19316e-22
-1.12481e-22
-2.46062e-22
-2.10163e-22
-5.70043e-22
-4.43216e-22
-1.09407e-21
-7.76791e-22
-4.65482e-22
-3.02275e-22
7.62746e-22
7.3257e-23
1.08029e-20
5.77485e-22
1.3536e-19
7.21456e-21
1.18357e-18
4.40072e-20
3.33493e-19
6.25534e-18
-2.75975e-29
-7.0387e-28
-1.57326e-28
-1.85252e-27
-8.97441e-28
-6.51032e-27
-3.35894e-27
-1.69843e-26
-7.6954e-27
-2.89974e-26
-1.16066e-26
-3.40326e-26
-2.06888e-26
-4.87065e-26
-4.82165e-26
-9.3394e-26
-1.31309e-25
-2.13486e-25
-3.44606e-25
-4.78243e-25
-8.85758e-25
-1.06436e-24
-2.09061e-24
-2.20161e-24
-4.06037e-24
-3.78557e-24
-7.04576e-24
-5.86411e-24
-1.46769e-23
-1.09775e-23
-3.50039e-23
-2.36483e-23
-6.96733e-23
-4.26753e-23
-3.41202e-23
-1.89931e-23
3.75561e-23
1.58062e-24
5.35112e-22
1.52165e-23
7.01322e-21
1.93053e-22
7.81433e-20
4.94372e-21
1.27861e-19
9.12925e-19
-2.94895e-30
-6.85436e-29
-1.49276e-29
-1.61748e-28
-7.54875e-29
-5.07606e-28
-2.55431e-28
-1.2024e-27
-5.25218e-28
-1.84533e-27
-6.2557e-28
-1.70891e-27
-1.01835e-27
-2.22721e-27
-2.291e-27
-4.10348e-27
-6.20968e-27
-9.27857e-27
-1.63508e-26
-2.07007e-26
-4.25423e-26
-4.6243e-26
-1.0191e-25
-9.61874e-26
-1.99261e-25
-1.64868e-25
-3.44554e-25
-2.519e-25
-7.18445e-25
-4.67121e-25
-1.7461e-24
-1.01487e-24
-3.56552e-24
-1.86007e-24
-1.92835e-24
-9.05744e-25
1.81182e-24
2.67159e-26
2.39971e-23
6.32752e-25
4.86982e-22
2.91492e-23
2.18963e-20
2.85398e-21
8.51271e-20
5.68115e-19
-2.76322e-31
-5.96846e-30
-1.24581e-30
-1.25983e-29
-5.66132e-30
-3.5658e-29
-1.74834e-29
-7.72283e-29
-3.22695e-29
-1.06375e-28
-2.90724e-29
-7.43655e-29
-4.41462e-29
-9.00658e-29
-9.55684e-29
-1.58803e-28
-2.54867e-28
-3.50809e-28
-6.6519e-28
-7.69157e-28
-1.72966e-27
-1.70015e-27
-4.15279e-27
-3.50492e-27
-8.08414e-27
-5.90798e-27
-1.37933e-26
-8.78943e-27
-2.84566e-26
-1.59015e-26
-6.95585e-26
-3.42438e-26
-1.43525e-25
-6.24919e-26
-7.85401e-26
-3.03498e-26
2.07588e-25
1.40206e-26
2.0531e-24
1.29351e-25
1.37562e-22
1.38966e-23
1.43984e-20
1.61949e-21
5.03718e-20
4.23428e-19
-2.27168e-32
-4.64292e-31
-9.11253e-32
-8.72264e-31
-3.74538e-31
-2.23475e-30
-1.06092e-30
-4.43785e-30
-1.75793e-30
-5.47815e-30
-1.18148e-30
-2.84777e-30
-1.68437e-30
-3.22249e-30
-3.4955e-30
-5.41145e-30
-9.06025e-30
-1.1523e-29
-2.31228e-29
-2.44566e-29
-5.92089e-29
-5.26017e-29
-1.40343e-28
-1.05581e-28
-2.68154e-28
-1.71934e-28
-4.4538e-28
-2.44609e-28
-8.95015e-28
-4.22646e-28
-2.15963e-27
-8.79404e-28
-4.35746e-27
-1.53389e-27
-1.25192e-27
-3.82025e-28
3.44566e-26
1.80562e-27
4.34494e-25
2.57716e-26
8.0972e-23
7.14954e-24
1.088e-20
9.25191e-22
2.68432e-20
3.07327e-19
-1.64358e-33
-3.23033e-32
-5.84978e-33
-5.37209e-32
-2.17932e-32
-1.24585e-31
-5.66978e-32
-2.26759e-31
-8.43126e-32
-2.50435e-31
-4.25837e-32
-9.74095e-32
-5.65965e-32
-1.02158e-31
-1.11965e-31
-1.62297e-31
-2.78343e-31
-3.28284e-31
-6.84125e-31
-6.63059e-31
-1.69584e-30
-1.36067e-30
-3.89646e-30
-2.60154e-30
-7.1739e-30
-3.99823e-30
-1.13833e-29
-5.3024e-30
-2.17883e-29
-8.4787e-30
-5.0127e-29
-1.62684e-29
-8.4122e-29
-2.27188e-29
4.91494e-28
4.78595e-29
6.61171e-27
2.2963e-28
1.5429e-25
8.71099e-27
5.91133e-23
3.58798e-24
8.01123e-21
4.26497e-22
1.17727e-20
2.15338e-19
-1.05184e-34
-2.01635e-33
-3.31036e-34
-2.95318e-33
-1.11739e-33
-6.18765e-33
-2.66671e-33
-1.02967e-32
-3.55507e-33
-1.01525e-32
-1.37533e-33
-3.00865e-33
-1.67699e-33
-2.87511e-33
-3.13726e-33
-4.28183e-33
-7.37257e-33
-8.09678e-33
-1.71546e-32
-1.52659e-32
-4.03535e-32
-2.92074e-32
-8.78892e-32
-5.17726e-32
-1.52222e-31
-7.27924e-32
-2.24724e-31
-8.67161e-32
-3.94435e-31
-1.2163e-31
-7.55162e-31
-1.83551e-31
2.47463e-30
1.60624e-31
7.74832e-29
1.70201e-30
1.26017e-27
2.5639e-29
9.04654e-26
3.01081e-27
4.51673e-23
1.19975e-24
5.55057e-21
1.13862e-22
2.98599e-21
1.40934e-19
-5.99144e-36
-1.13405e-34
-1.66113e-35
-1.45613e-34
-5.06966e-35
-2.74836e-34
-1.10658e-34
-4.16556e-34
-1.32002e-34
-3.65703e-34
-4.00676e-35
-8.45106e-35
-4.38872e-35
-7.19901e-35
-7.68204e-35
-9.93327e-35
-1.67964e-34
-1.72557e-34
-3.62907e-34
-2.97168e-34
-7.91435e-34
-5.15855e-34
-1.58957e-33
-8.19506e-34
-2.50877e-33
-1.01049e-33
-3.30956e-33
-1.02057e-33
-4.73894e-33
-1.084e-33
1.08989e-32
4.74369e-34
5.20498e-31
1.09957e-32
9.24096e-30
5.75068e-32
2.81419e-28
1.29463e-30
6.46684e-26
-1.44004e-28
3.34266e-23
-3.35533e-25
3.53886e-21
-4.24368e-23
-8.01059e-22
7.91199e-20
-3.05802e-37
-5.77577e-36
-7.43706e-37
-6.47528e-36
-2.04547e-36
-1.09711e-35
-4.06647e-36
-1.50756e-35
-4.32883e-36
-1.17455e-35
-1.05676e-36
-2.16813e-36
-1.01595e-36
-1.60732e-36
-1.64239e-36
-2.02595e-36
-3.28349e-36
-3.1721e-36
-6.44591e-36
-4.86872e-36
-1.26801e-35
-7.42482e-36
-2.26929e-35
-1.01262e-35
-3.12465e-35
-1.03148e-35
-3.38043e-35
-7.84937e-36
3.82279e-35
7.26086e-37
2.21209e-33
4.05194e-35
3.96478e-32
3.85488e-35
7.61577e-31
-1.5275e-33
6.96989e-29
-5.27082e-31
3.76931e-26
-1.19666e-27
2.16428e-23
-9.13017e-25
1.88342e-21
-7.23526e-23
-1.1373e-21
3.41754e-20
-1.40687e-38
-2.67783e-37
-2.98699e-38
-2.61193e-37
-7.37351e-38
-3.95752e-37
-1.32861e-37
-4.90491e-37
-1.25786e-37
-3.37799e-37
-2.52643e-38
-5.09213e-38
-2.08316e-38
-3.2076e-38
-3.06351e-38
-3.63364e-38
-5.49506e-38
-5.02239e-38
-9.56443e-38
-6.68254e-38
-1.64307e-37
-8.61467e-38
-2.50861e-37
-9.53805e-38
-2.81847e-37
-7.30456e-38
-1.24101e-37
-1.93863e-38
8.53125e-36
2.97434e-37
1.03242e-34
-2.86499e-39
3.36487e-34
-3.08322e-36
4.89228e-32
-5.3169e-34
7.44906e-30
-7.64808e-32
1.52972e-26
-7.08112e-28
1.05341e-23
-6.20367e-25
7.3249e-22
-3.82756e-23
-5.03678e-22
1.05658e-20
-5.85467e-40
-1.13635e-38
-1.08031e-39
-9.61404e-39
-2.38353e-39
-1.29753e-38
-3.87268e-39
-1.44239e-38
-3.24819e-39
-8.74055e-39
-5.4728e-40
-1.09619e-39
-3.78783e-40
-5.73664e-40
-4.98227e-40
-5.73526e-40
-7.85516e-40
-6.8418e-40
-1.17933e-39
-7.64833e-40
-1.70246e-39
-7.95675e-40
-2.09437e-39
-6.63075e-40
-1.54021e-39
-2.90848e-40
2.05199e-38
8.08287e-40
1.29978e-37
-6.01535e-42
2.40357e-37
-1.22595e-39
4.06569e-35
-3.37876e-37
3.99754e-33
-5.98792e-35
4.22106e-31
-5.23458e-33
3.85787e-27
-1.54685e-28
3.25114e-24
-1.80748e-25
1.86493e-22
-1.04717e-23
-1.50443e-22
2.32342e-21
-2.20235e-41
-4.43954e-40
-3.52248e-41
-3.24955e-40
-6.92292e-41
-3.8905e-40
-1.00941e-40
-3.85587e-40
-7.4704e-41
-2.04508e-40
-1.07227e-41
-2.16439e-41
-6.11247e-42
-9.22218e-42
-7.0603e-42
-7.97708e-42
-9.57037e-42
-8.01492e-42
-1.20169e-41
-7.26581e-42
-1.39188e-41
-5.76344e-42
-1.25729e-41
-3.19808e-42
2.62504e-41
9.45831e-43
1.48249e-40
-3.90448e-46
1.94197e-40
-6.6169e-43
1.14916e-38
-2.32181e-40
1.84057e-36
-4.07482e-38
2.34794e-34
-1.95675e-36
1.70652e-32
-3.2872e-34
4.68835e-28
-5.30755e-30
5.43767e-25
-2.45524e-26
3.08606e-23
-1.84008e-24
-4.34694e-23
4.52598e-22
-7.44192e-43
-1.60759e-41
-1.03291e-42
-1.01549e-41
-1.80575e-42
-1.07384e-41
-2.35412e-42
-9.42731e-42
-1.53156e-42
-4.34993e-42
-1.89421e-43
-3.92178e-43
-8.75539e-44
-1.33709e-43
-8.71047e-44
-9.79639e-44
-9.91473e-44
-8.07454e-44
-1.00577e-43
-5.70254e-44
-8.82524e-44
-3.20993e-44
-3.80635e-44
-7.31801e-45
1.79899e-43
2.81255e-46
2.02168e-43
-5.63059e-46
5.50391e-42
-7.60306e-44
1.09957e-39
-1.87544e-41
1.3071e-37
-8.37374e-40
4.92678e-36
-9.36646e-38
7.32395e-34
-1.83761e-35
1.0412e-29
-3.32267e-32
4.86524e-26
-1.90457e-27
3.70492e-24
-2.49085e-25
-1.09146e-23
9.44751e-23
-2.22678e-44
-5.44023e-43
-2.70196e-44
-2.95641e-43
-4.2112e-44
-2.74768e-43
-4.90163e-44
-2.1215e-43
-2.79589e-44
-8.45767e-44
-3.00252e-45
-6.52504e-45
-1.11208e-45
-1.75474e-45
-9.34224e-46
-1.06496e-45
-8.70945e-46
-6.99976e-46
-6.86623e-46
-3.67952e-46
-4.22647e-46
-1.33338e-46
6.17083e-46
2.1788e-47
2.38731e-45
-2.80867e-49
3.74528e-45
-1.1023e-47
3.3733e-43
-3.68956e-45
5.35877e-41
-4.99941e-43
1.78321e-39
-1.84455e-41
1.69851e-37
-2.92108e-39
2.957e-35
-7.79281e-37
4.82813e-32
-1.09301e-33
2.68596e-27
-1.07663e-28
3.58728e-25
-2.50262e-26
-1.56558e-24
1.6683e-23
-5.71357e-46
-1.73878e-44
-6.18187e-46
-8.08815e-45
-8.67778e-46
-6.56698e-45
-9.04742e-46
-4.42326e-45
-4.52377e-46
-1.51164e-45
-4.2387e-47
-9.97544e-47
-1.2487e-47
-2.09233e-47
-8.68627e-48
-1.02801e-47
-6.4617e-48
-5.22692e-48
-3.79052e-48
-1.94113e-48
-1.41454e-48
-3.79433e-49
3.95558e-48
8.29188e-51
3.54922e-48
-5.44195e-51
4.93669e-47
-2.47724e-49
1.02862e-44
-6.99019e-47
9.73971e-43
-3.51191e-45
2.87009e-41
-3.83068e-43
3.95201e-39
-1.34267e-40
1.05391e-36
-1.32391e-37
2.30061e-33
-1.40749e-33
1.12689e-28
-6.40832e-30
2.59721e-26
-1.5414e-27