/*--------------------------------*- C++ -*----------------------------------*\
| =========                 |                                                 |
| \\      /  F ield         | OpenFOAM: The Open Source CFD Toolbox           |
|  \\    /   O peration     | Version:  v2012                                 |
|   \\  /    A nd           | Website:  www.openfoam.com                      |
|    \\/     M anipulation  |                                                 |
\*---------------------------------------------------------------------------*/
FoamFile
{
    version     2.0;
    format      ascii;
    class       volScalarField;
    location    "0.8";
    object      alpha.water;
}
// * * * * * * * * * * * * * * * * * * * * * * * * * * * * * * * * * * * * * //

dimensions      [0 0 0 0 0 0 0];


internalField   nonuniform List<scalar> 
2268
(
1
1
1
1
1
1
1
1
1
1
1
1
1
1
1
0.999998
0.999975
0.992313
0.956907
0.954873
0.954873
0.98001
0.999669
1
1
1
1
1
1
1
1
1
1
1
1
1
1
1
1
1
0.999596
0.985447
0.960509
0.955652
0.971239
0.999669
1
1
1
1
1
1
1
1
1
1
1
1
1
1
1
1
1
1
1
0.998671
0.995837
0.998165
0.999669
1
1
1
1
1
1
1
1
1
1
1
1
1
1
1
1
1
1
1
1
1
1
0.999674
1
1
1
1
1
1
1
1
1
1
1
1
1
1
1
1
1
1
1
1
1
0.999936
0.999721
1
1
1
1
1
1
1
1
1
1
1
1
1
1
1
1
1
1
1
1
1
0.9998
0.999623
1
1
1
1
1
1
1
1
1
1
1
1
1
1
1
1
1
1
1
1
0.999998
0.999889
0.999688
1
1
1
1
1
1
1
1
1
1
1
1
1
1
1
1
1
1
1
0.999999
0.999992
0.999975
0.999943
0.392522
0.886554
0.997266
0.995294
0.992045
0.993422
0.99749
0.993576
0.981547
0.981417
0.983558
0.986705
0.968051
0.94104
0.932819
0.93082
0.950313
0.951894
0.945328
0.728556
0.977529
0.997377
0.997473
0.997494
0.997492
0.997494
0.997482
0.997421
0.997273
0.997265
0.997172
0.996991
0.99655
0.972773
0.932101
0.917493
0.92148
0.966849
0.993157
0.997001
0.997266
0.997369
0.989735
0.997491
0.99749
0.997468
0.997303
0.997265
0.997166
0.996977
0.996528
0.99611
0.995901
0.992795
0.917915
0.891327
0.944921
0.988034
0.994234
0.989351
0.864695
0.972809
0.997477
0.997471
0.995062
0.991034
0.994231
0.996078
0.996283
0.996141
0.995937
0.995317
0.994713
0.989761
0.889623
0.889623
0.983564
0.939634
0.552698
0.387399
0.818098
0.964711
0.996985
0.925915
0.707653
0.622276
0.782111
0.984438
0.994849
0.995491
0.994847
0.99379
0.992394
0.965846
0.889516
0.977434
0.925468
0.192799
0.181541
0.479309
0.707217
0.735855
0.420702
0.111493
0.107874
0.140509
0.589132
0.976002
0.992432
0.993372
0.992502
0.989901
0.97943
0.908969
0.968791
0.738869
0.181714
0.179028
0.29015
0.686811
0.451543
0.105952
0.105614
0.105967
0.107874
0.153056
0.685326
0.787494
0.913538
0.988419
0.984413
0.975693
0.969205
0.959638
0.631531
0.179056
0.179113
0.431154
0.70266
0.682799
0.15598
0.105866
0.105614
0.106307
0.112769
0.441843
0.232822
0.472985
0.8812
0.952698
0.967274
0.968808
1
1
0.999066
1
1
1
1
1
1
1
1
1
0.999999
1
1
0.999999
1
0.999998
0.999993
0.999989
0.999978
0.99994
0.999846
0.41142
0.408147
0.424887
0.461786
0.526589
0.606866
0.68938
0.766967
0.83887
0.905243
0.958365
0.986545
0.993279
0.995579
0.999378
0.999965
0.999958
0.999942
0.999934
0.999922
0.999912
0.999817
0.999236
0.00240963
0.0019577
0.00242761
0.00425735
0.00969092
0.0231876
0.0465815
0.0798526
0.121228
0.167202
0.217077
0.279729
0.370464
0.481163
0.586619
0.674802
0.741536
0.782049
0.841629
0.907959
0.966691
0.991617
0.992065
0.000148064
0.000115825
0.000131687
0.000126994
0.000115415
0.000101551
8.42712e-05
6.4577e-05
4.23385e-05
2.31766e-05
9.02146e-06
-3.9013e-06
-1.03844e-09
3.2956e-09
4.36948e-08
5.19976e-07
0.000459361
0.0641611
0.122124
0.222133
0.389097
0.535013
0.671792
1.25398e-05
1.02433e-05
1.22507e-05
1.17946e-05
1.0199e-05
8.1238e-06
5.92554e-06
4.03571e-06
2.22771e-06
9.84284e-07
3.33597e-07
8.98704e-11
3.30643e-11
2.19632e-10
3.29396e-09
4.14389e-08
4.82115e-07
4.92213e-06
8.85403e-06
4.66673e-05
0.000410587
0.00531087
0.0736197
1.0015e-06
8.70598e-07
1.0749e-06
1.03685e-06
8.68291e-07
6.49725e-07
4.42101e-07
2.63224e-07
1.23102e-07
4.45389e-08
1.21149e-08
3.3078e-11
-5.91805e-13
-1.64468e-13
6.19095e-10
9.64029e-09
1.20723e-07
1.21869e-06
1.02637e-05
7.01575e-05
0.00041682
0.00216369
0.00725616
7.60367e-08
6.99199e-08
8.77935e-08
8.50321e-08
6.9979e-08
5.04583e-08
3.12527e-08
1.70096e-08
7.03247e-09
2.18659e-09
5.43186e-10
1.34314e-25
-9.49005e-10
-6.27986e-09
0
2.9797e-09
6.73185e-08
7.53521e-07
6.32135e-06
4.23373e-05
0.000242182
0.000973338
0.00381175
5.45599e-09
5.28224e-09
6.69253e-09
6.5109e-09
5.30398e-09
3.73239e-09
2.1193e-09
1.00044e-09
3.47128e-10
0
0
-4.37983e-09
-8.26789e-09
-1.3598e-08
-9.81719e-09
0
2.2068e-08
2.89491e-07
2.63643e-06
2.00153e-05
0.000115178
0.000485968
0.00205309
3.70477e-10
3.76885e-10
4.7997e-10
4.65749e-10
3.71569e-10
2.24997e-10
1.31328e-10
1.33686e-25
0
-1.57177e-09
-3.82946e-09
-6.64486e-09
-8.76812e-09
-1.1652e-08
-1.13818e-08
0
5.35802e-09
7.73704e-08
8.71289e-07
7.21238e-06
4.53134e-05
0.000210477
0.00100555
3.12821e-11
3.4323e-11
4.26375e-11
3.67588e-11
2.19934e-11
3.34214e-26
-6.68429e-26
-3.91681e-10
-1.23684e-09
-2.42271e-09
-3.53078e-09
-4.65273e-09
-5.59332e-09
-6.8902e-09
-7.4557e-09
-1.95239e-09
-3.72052e-11
1.62731e-08
2.132e-07
1.98107e-06
1.40218e-05
7.47998e-05
0.000390213
2.28501e-12
2.62474e-12
2.71806e-12
1.53438e-12
0
-4.56764e-11
-2.23741e-10
-5.08562e-10
-8.81351e-10
-1.34102e-09
-1.7887e-09
-2.22195e-09
-2.63189e-09
-3.17425e-09
-3.62871e-09
-2.66579e-09
-2.6526e-25
2.30802e-09
3.81207e-08
4.05792e-07
3.24673e-06
2.07446e-05
0.000134256
3.16687e-13
3.80013e-13
3.0501e-13
0
-1.24017e-11
-5.05216e-11
-1.1486e-10
-2.09251e-10
-3.35378e-10
-4.89764e-10
-6.49787e-10
-8.09869e-10
-9.73895e-10
-1.18769e-09
-1.41726e-09
-1.37413e-09
0
1.43589e-10
4.97652e-09
6.13364e-08
5.51241e-07
4.09389e-06
2.6527e-05
2.09389e-14
2.5193e-14
6.80869e-15
-1.00148e-12
-5.78382e-12
-1.57048e-11
-3.21861e-11
-5.68577e-11
-9.13124e-11
-1.35416e-10
-1.84711e-10
-2.37026e-10
-2.92887e-10
-3.66194e-10
-4.58217e-10
-5.07325e-10
-1.82749e-10
-1.77049e-12
5.07404e-10
7.22693e-09
7.08742e-08
5.49254e-07
2.99563e-06
1.02095e-15
1.12693e-15
-1.12838e-14
-3.46631e-13
-1.32841e-12
-3.27569e-12
-6.58409e-12
-1.1786e-11
-1.95119e-11
-3.00444e-11
-4.28226e-11
-5.72971e-11
-7.30716e-11
-9.39542e-11
-1.23803e-10
-1.50955e-10
-1.02051e-10
-4.90341e-13
5.85858e-11
9.80811e-10
1.09221e-08
9.21601e-08
4.66703e-07
4.77282e-17
3.04473e-17
-7.04921e-15
-6.6572e-14
-2.24325e-13
-5.331e-13
-1.07559e-12
-1.9788e-12
-3.41844e-12
-5.5184e-12
-8.28776e-12
-1.16396e-11
-1.53413e-11
-2.02398e-11
-2.8097e-11
-3.72436e-11
-3.29395e-11
-3.65551e-15
6.90461e-12
1.26045e-10
1.57442e-09
1.41879e-08
6.89173e-08
1.31068e-18
1.99207e-33
-1.43456e-15
-9.91862e-15
-3.11654e-14
-7.21613e-14
-1.46554e-13
-2.77866e-13
-5.03343e-13
-8.55037e-13
-1.35831e-12
-2.00905e-12
-2.7379e-12
-3.69401e-12
-5.38694e-12
-7.70758e-12
-8.03335e-12
3.95483e-30
1.69597e-12
1.63756e-11
2.13349e-10
1.89953e-09
9.30306e-09
0
-8.43293e-18
-2.21798e-16
-1.27351e-15
-3.76505e-15
-8.4189e-15
-1.70827e-14
-3.32799e-14
-6.32555e-14
-1.13109e-13
-1.9024e-13
-2.96696e-13
-4.18143e-13
-5.75496e-13
-8.77989e-13
-1.34815e-12
-1.58294e-12
4.07977e-30
2.79048e-13
2.89319e-12
2.68129e-11
2.26911e-10
1.11548e-09
-3.23914e-19
-2.50944e-18
-2.989e-17
-1.47563e-16
-4.07354e-16
-8.64777e-16
-1.73097e-15
-3.44361e-15
-6.85314e-15
-1.28747e-14
-2.28995e-14
-3.76418e-14
-5.4859e-14
-7.69026e-14
-1.22192e-13
-2.00277e-13
-2.58636e-13
-1.94759e-14
1.07055e-14
2.92818e-13
3.94076e-12
3.15541e-11
1.1866e-10
-9.08819e-20
-4.59343e-19
-3.63613e-18
-1.56651e-17
-3.99876e-17
-7.91933e-17
-1.54079e-16
-3.10536e-16
-6.44348e-16
-1.26728e-15
-2.37685e-15
-4.11039e-15
-6.19107e-15
-8.83086e-15
-1.45473e-14
-2.53153e-14
-3.54109e-14
-5.7024e-15
-9.72294e-18
2.55771e-14
3.60569e-13
2.96385e-12
1.58679e-11
-1.61611e-20
-6.66936e-20
-4.03129e-19
-1.53031e-18
-3.58629e-18
-6.52012e-18
-1.21336e-17
-2.45512e-17
-5.2805e-17
-1.08189e-16
-2.13044e-16
-3.86354e-16
-6.00529e-16
-8.70655e-16
-1.48005e-15
-2.71922e-15
-4.07357e-15
-9.67615e-16
-7.21372e-19
1.97316e-15
2.69466e-14
2.24434e-13
1.2524e-12
-2.34127e-21
-8.33561e-21
-4.12377e-20
-1.38906e-19
-2.97203e-19
-4.86651e-19
-8.49552e-19
-1.70873e-18
-3.78199e-18
-8.02164e-18
-1.64895e-17
-3.12134e-17
-4.9935e-17
-7.34582e-17
-1.28216e-16
-2.47184e-16
-3.92813e-16
-1.20801e-16
-4.02457e-20
1.30958e-16
1.68734e-15
1.44045e-14
8.47774e-14
-2.96117e-22
-9.32904e-22
-3.9433e-21
-1.18784e-20
-2.31106e-20
-3.3118e-20
-5.30412e-20
-1.0497e-19
-2.37071e-19
-5.16637e-19
-1.10066e-18
-2.16131e-18
-3.54411e-18
-5.27494e-18
-9.39955e-18
-1.88837e-17
-3.155e-17
-1.17357e-17
-1.21694e-21
7.29954e-18
9.08056e-17
9.48373e-16
9.48412e-15
-3.34813e-23
-9.45386e-23
-3.51746e-22
-9.57496e-22
-1.68929e-21
-2.03097e-21
-2.95209e-21
-5.70025e-21
-1.30122e-20
-2.88782e-20
-6.32052e-20
-1.2774e-19
-2.13443e-19
-3.19973e-19
-5.78081e-19
-1.20042e-18
-2.08902e-18
-8.98567e-19
-5.66628e-35
3.51751e-19
6.23032e-18
1.81086e-16
5.5068e-15
-3.40071e-24
-8.63404e-24
-2.88123e-23
-7.16081e-23
-1.14339e-22
-1.09342e-22
-1.46064e-22
-2.73781e-22
-6.25163e-22
-1.39851e-21
-3.11188e-21
-6.4097e-21
-1.08259e-20
-1.62377e-20
-2.94852e-20
-6.26549e-20
-1.12338e-19
-5.35986e-20
9.80373e-38
3.60537e-20
2.07265e-18
1.69693e-16
5.11911e-15
-3.09826e-25
-7.05404e-25
-2.13162e-24
-4.87016e-24
-7.0274e-24
-5.11537e-24
-6.41197e-24
-1.16294e-23
-2.62657e-23
-5.85324e-23
-1.30787e-22
-2.71249e-22
-4.58174e-22
-6.81074e-22
-1.22894e-21
-2.63771e-21
-4.79905e-21
-2.32642e-21
1.46433e-21
1.63628e-20
1.3198e-18
1.3571e-16
4.22545e-15
-2.52807e-26
-5.13579e-26
-1.41022e-25
-2.97015e-25
-3.86766e-25
-2.11147e-25
-2.49815e-25
-4.36661e-25
-9.63586e-25
-2.1106e-24
-4.66756e-24
-9.60395e-24
-1.59988e-23
-2.32584e-23
-4.10633e-23
-8.73826e-23
-1.56119e-22
-3.98943e-23
4.71545e-22
5.39894e-21
9.03653e-19
1.12504e-16
3.35564e-15
-1.84841e-27
-3.33291e-27
-8.31596e-27
-1.61401e-26
-1.8937e-26
-7.80376e-27
-8.64847e-27
-1.44829e-26
-3.081e-26
-6.53286e-26
-1.40583e-25
-2.81829e-25
-4.54662e-25
-6.34545e-25
-1.07208e-24
-2.18498e-24
-3.26065e-24
7.1173e-24
1.03351e-22
2.12394e-21
7.27284e-19
9.15073e-17
2.58913e-15
-1.21395e-28
-1.9336e-28
-4.37595e-28
-7.80782e-28
-8.23774e-28
-2.60985e-28
-2.66483e-28
-4.23969e-28
-8.56797e-28
-1.72868e-27
-3.54857e-27
-6.7788e-27
-1.03411e-26
-1.34961e-26
-2.10127e-26
-3.58059e-26
3.45569e-26
1.50477e-24
2.15083e-23
1.36627e-21
6.17851e-19
7.07073e-17
1.87926e-15
-7.18822e-30
-1.00719e-29
-2.06171e-29
-3.36948e-29
-3.18872e-29
-7.95129e-30
-7.32089e-30
-1.09452e-29
-2.06768e-29
-3.89325e-29
-7.44797e-29
-1.31906e-28
-1.84352e-28
-2.16141e-28
-2.75964e-28
1.45088e-28
1.23818e-26
1.96086e-25
5.29103e-24
1.08891e-21
5.13905e-19
5.09138e-17
1.18734e-15
-3.85479e-31
-4.73351e-31
-8.73493e-31
-1.3018e-30
-1.10158e-30
-2.21515e-31
-1.79626e-31
-2.49016e-31
-4.32071e-31
-7.42799e-31
-1.28844e-30
-2.04427e-30
-2.5064e-30
-2.42336e-30
2.37741e-32
6.48936e-29
1.05976e-27
1.80186e-26
1.46708e-24
7.18389e-22
3.78621e-19
3.10599e-17
5.88747e-16
-1.88108e-32
-2.0174e-32
-3.34376e-32
-4.52171e-32
-3.40853e-32
-5.65246e-33
-3.94312e-33
-4.99084e-33
-7.80229e-33
-1.19485e-32
-1.81919e-32
-2.47574e-32
-2.49079e-32
-9.85851e-33
3.09559e-31
4.03841e-30
1.14926e-29
1.29352e-27
1.78408e-25
3.3379e-22
2.12236e-19
1.40366e-17
2.12539e-16
-8.39374e-34
-7.8378e-34
-1.16231e-33
-1.41853e-33
-9.48425e-34
-1.32178e-34
-7.75918e-35
-8.81201e-35
-1.21552e-34
-1.61272e-34
-2.07346e-34
-2.2858e-34
-1.51386e-34
8.97998e-34
7.57643e-33
1.26016e-32
1.35414e-30
1.21639e-28
1.16841e-26
9.76061e-23
7.6402e-20
4.20266e-18
5.49614e-17
-3.44196e-35
-2.79075e-35
-3.68813e-35
-4.03916e-35
-2.38331e-35
-2.83226e-36
-1.3717e-36
-1.37144e-36
-1.63177e-36
-1.81783e-36
-1.88383e-36
-1.53272e-36
8.67722e-37
1.27979e-35
1.53149e-35
4.85977e-34
7.0555e-32
8.3047e-30
5.53692e-28
1.39341e-23
1.5095e-20
8.20657e-19
1.23076e-17
-1.30405e-36
-9.15917e-37
-1.0743e-36
-1.04938e-36
-5.43355e-37
-5.55986e-38
-2.18418e-38
-1.8836e-38
-1.88643e-38
-1.7033e-38
-1.34257e-38
-5.24035e-39
2.18938e-38
2.25657e-38
2.99246e-37
5.32346e-35
5.91381e-33
2.0633e-31
2.80538e-29
3.68975e-25
1.61699e-21
1.16983e-19
2.94465e-18
-4.59365e-38
-2.78825e-38
-2.89003e-38
-2.50142e-38
-1.12928e-38
-9.99783e-40
-3.14168e-40
-2.28719e-40
-1.87798e-40
-1.32059e-40
-7.32495e-41
2.62152e-41
2.58218e-40
3.81034e-40
2.07513e-38
3.07967e-36
9.56397e-35
8.39691e-33
1.36109e-30
2.07515e-27
1.08688e-22
1.3757e-20
6.2234e-19
-1.51643e-39
-7.92924e-40
-7.22753e-40
-5.50313e-40
-2.15034e-40
-1.64698e-41
-4.09475e-42
-2.46128e-42
-1.61078e-42
-8.43165e-43
-2.84038e-43
7.23341e-43
5.96728e-43
4.11849e-42
7.44081e-40
6.68426e-38
1.84616e-36
2.35639e-34
5.92305e-32
1.22065e-28
5.66288e-24
1.24232e-21
7.68989e-20
-4.73947e-41
-2.12381e-41
-1.69227e-41
-1.12426e-41
-3.77067e-42
-2.48576e-43
-4.85085e-44
-2.35409e-44
-1.19149e-44
-4.4095e-45
-5.46416e-46
5.31148e-45
3.79399e-45
6.79393e-44
1.16604e-41
4.14224e-40
3.52404e-38
1.0179e-35
1.62589e-32
2.34311e-28
3.30337e-25
7.07429e-23
5.55439e-21
-1.42116e-42
-5.4086e-43
-3.73751e-43
-2.1459e-43
-6.11922e-44
-3.43746e-45
-5.23823e-46
-2.00797e-46
-7.6102e-47
-1.87668e-47
-1.00744e-48
7.56827e-50
2.05094e-48
1.53636e-46
1.69278e-44
3.04485e-42
1.00132e-39
4.61371e-37
2.92088e-32
5.74406e-28
3.68549e-26
2.39597e-24
2.45797e-22
-4.15756e-44
-1.32403e-44
-7.84254e-45
-3.84854e-45
-9.23469e-46
-4.35661e-47
-5.17164e-48
-1.53411e-48
-4.20567e-49
-6.45458e-50
-1.56729e-51
-8.04038e-54
1.27318e-52
4.88851e-50
2.93834e-47
2.08696e-44
1.70204e-41
1.80122e-38
2.27333e-32
6.5264e-29
3.04054e-27
3.77067e-26
1.97771e-24
-1.21053e-45
-3.14896e-46
-1.57339e-46
-6.51881e-47
-1.30266e-47
-5.07249e-49
-4.6909e-50
-1.05748e-50
-2.02056e-51
-1.7789e-52
-1.617e-54
-6.60938e-57
1.45076e-57
1.34825e-54
1.26654e-51
1.40712e-48
1.92238e-45
3.04146e-42
1.41691e-37
8.36311e-32
1.73221e-29
2.41085e-28
8.84183e-28
-3.58303e-47
-7.32768e-48
-3.02857e-48
-1.04862e-48
-1.73101e-49
-5.46915e-51
-3.94944e-52
-6.67279e-53
-8.55555e-54
-3.90758e-55
-1.01185e-57
-2.50637e-60
-6.93411e-63
-2.08563e-65
1.83637e-65
1.36426e-61
9.15955e-58
3.52412e-54
1.88359e-42
2.45982e-35
4.40899e-32
1.32082e-30
3.8744e-30
-1.09618e-48
-1.6705e-49
-5.60622e-50
-1.61173e-50
-2.19197e-51
-5.55464e-53
-3.14473e-54
-3.9585e-55
-3.31247e-56
-7.03755e-58
-5.46949e-61
-4.61465e-64
-4.27664e-67
-4.30251e-70
-4.62065e-73
-5.24954e-76
1.62346e-70
5.82594e-70
0
1.97538e-49
1.85264e-42
1.49776e-39
2.20496e-38
0.995881
0.940193
0.875263
0.942185
0.977169
0.806421
0.751849
0.743582
0.985325
0.969487
0.898604
0.864098
0.894864
0.95957
0.945555
0.931056
0.509895
0.868589
0.933358
0.801961
0.0556766
0.465314
0.781239
0.539697
0.0128536
0.183026
0.45974
0.569052
0.00790837
0.0957438
0.323046
0.464627
0.00462005
0.0360608
0.205562
0.347667
0.00198129
0.00906179
0.0959547
0.250198
0.000443442
0.00151684
0.00601275
0.106507
9.6229e-05
0.000228036
0.000338706
0.00118187
9.83613e-06
2.74153e-05
8.79003e-05
8.92931e-05
1.20263e-06
2.88947e-06
5.65717e-06
1.0669e-05
1.64954e-07
3.87189e-07
7.00607e-07
1.35131e-06
2.01175e-08
4.76947e-08
8.81981e-08
1.60169e-07
2.24869e-09
5.35103e-09
9.99239e-09
1.77339e-08
2.29553e-10
5.34894e-10
9.95628e-10
1.74663e-09
3.0858e-11
5.43062e-11
1.03186e-10
1.78539e-10
2.46823e-12
4.70844e-12
9.83695e-12
1.84798e-11
1.69413e-13
3.22894e-13
6.77917e-13
1.25487e-12
2.47097e-14
4.89324e-14
9.82449e-14
1.75923e-13
1.73861e-14
3.26933e-14
6.35326e-14
1.11126e-13
1.58751e-14
3.11151e-14
6.40669e-14
1.12651e-13
1.32415e-14
2.6567e-14
5.70007e-14
1.06699e-13
1.0604e-14
2.19073e-14
5.03284e-14
1.08292e-13
8.35475e-15
1.82987e-14
4.6626e-14
1.1383e-13
6.26753e-15
1.45539e-14
3.95343e-14
9.68413e-14
4.01312e-15
9.4062e-15
2.50579e-14
5.20229e-14
1.93789e-15
4.26095e-15
1.05221e-14
1.75028e-14
6.61219e-16
1.37982e-15
2.75694e-15
4.14459e-15
1.68041e-16
3.66911e-16
8.15354e-16
3.22455e-15
4.64347e-17
1.58066e-16
6.276e-16
6.79492e-15
1.76864e-17
1.12446e-16
5.1435e-16
4.73211e-15
5.51223e-18
5.50545e-17
3.72229e-16
4.50475e-16
7.83164e-19
1.22224e-17
9.85381e-17
1.03118e-16
6.50935e-20
1.54784e-18
1.29524e-17
1.02792e-17
3.72721e-21
1.40625e-19
1.04635e-18
2.84624e-19
4.3219e-23
1.46521e-21
7.62393e-21
1.24567e-21
6.72257e-27
8.1809e-25
6.74559e-24
7.28973e-25
2.2143e-31
2.96637e-34
5.86292e-37
1.13645e-38
3.77272e-40
1.8213e-44
-1.35247e-42
-2.12629e-39
0.950194
0.50245
0.184411
0.258023
0.693912
0.702524
0.702658
0.677439
0.195575
0.106307
0.107331
0.260615
0.377677
0.0976241
0.0906875
0.346406
0.53101
0.794203
0.966149
0.730693
0.645111
0.729403
0.761803
0.758298
0.541592
0.599378
0.677643
0.621957
0.161787
0.1349
0.495666
0.40341
0.0922224
0.0647221
0.0663863
0.0675311
0.170207
0.804217
0.870865
0.871592
0.871168
0.645974
0.0875454
0.0202624
0.092322
0.555237
0.630794
0.321691
0.162305
0.635237
0.374217
0.122627
0.0627658
0.0647221
0.0667046
0.0680941
0.159513
0.855689
0.681086
0.0842785
0.000149098
0.000594969
0.00105943
0.00469483
0.290668
0.591129
0.333973
0.315073
0.646819
0.280582
0.0540071
0.0562052
0.0724414
0.0692356
0.0694973
0.0731123
0.259619
0.000114659
0.000115486
0.000115486
0.000143133
0.00053911
0.00333817
0.104827
0.548558
0.652386
0.652134
0.655961
0.250817
0.041441
0.058925
0.103903
0.105762
0.0902441
0.0744221
0.102699
0.000126244
0.000114653
0.000126112
0.000214056
0.000738208
0.00371285
0.0824746
0.523035
0.650355
0.655961
0.659082
0.312053
0.0385198
0.0645216
0.106806
0.111528
0.114946
0.0994226
0.154546
0.000160928
0.000126244
0.000159175
0.000277304
0.000823162
0.0033267
0.079709
0.232962
0.3341
0.571329
0.658878
0.375647
0.0385198
0.0684526
0.0812368
0.0899861
0.1157
0.113161
0.240119
0.000319846
0.000160858
0.000278267
0.000608184
0.0107143
0.0370262
0.0338639
0.0129522
0.140271
0.657329
0.658878
0.343255
0.0401704
0.0396601
0.0309905
0.00681186
0.11726
0.115959
0.312894
0.0590436
0.000317696
0.00108869
0.0132944
0.0144402
0.00898759
0.00283028
0.00622123
0.181641
0.656041
0.640551
0.234376
0.0456195
0.0172202
0.00878473
0.00347603
0.078676
0.113161
0.278465
0.207433
0.00777902
0.00138977
0.00601506
0.00928106
0.0011726
0.00202749
0.00435933
0.468653
0.652311
0.180403
0.0823816
0.0385715
0.0107724
0.00128643
0.0010821
0.0102092
0.11248
0.224677
0.228696
0.137517
0.00161137
0.00123267
0.0011726
0.00117244
0.00117244
0.165589
0.472148
0.265458
0.000680437
0.00620558
0.0244519
0.00168243
0.000275124
0.0002896
0.00359767
0.112119
0.0764047
0.223443
0.243075
0.10396
0.00132342
0.00123267
0.00743801
0.0635106
0.352097
0.325772
8.22254e-05
0.000473756
0.00254421
0.00958467
0.000232506
3.68605e-05
9.77933e-05
0.00236865
0.11103
9.24623e-05
0.0377903
0.249475
0.277948
0.281503
0.288787
0.310258
0.310258
0.164463
7.23773e-06
3.99278e-05
0.00056281
0.0026911
0.00095231
3.44303e-05
7.88038e-07
0.00013175
0.000389428
0.109232
9.64691e-06
6.22125e-06
-9.80142e-06
0.0991087
0.202215
0.203488
0.128402
0.0571241
1.52453e-06
4.38542e-06
2.94351e-05
0.000527821
0.000590312
1.20741e-05
5.89339e-07
1.09352e-06
0.000216797
3.33204e-05
0.105756
1.5018e-06
1.62863e-07
1.03325e-07
1.20284e-07
6.48765e-08
5.01752e-08
4.55484e-08
5.01752e-08
4.96434e-07
1.52456e-06
6.0843e-05
0.000135633
2.55088e-06
1.83014e-06
7.30826e-07
6.63415e-07
8.62574e-05
1.74923e-05
0.0679326
1.9403e-07
1.64542e-07
2.72334e-06
5.37423e-06
1.50328e-06
1.42134e-07
3.63897e-08
7.43959e-06
1.32973e-05
8.48566e-06
2.58065e-05
4.17156e-06
3.0594e-07
1.0077e-06
1.13347e-05
7.79036e-07
8.44784e-08
8.4231e-08
0.0143847
2.24034e-08
5.91978e-08
5.00336e-07
2.33126e-06
1.82683e-06
4.10991e-07
1.88518e-08
1.0714e-05
2.02619e-05
1.25625e-05
8.24161e-06
1.76919e-07
7.76691e-08
1.4777e-07
3.40446e-06
2.69842e-07
5.40659e-08
8.66976e-08
0.00830901
2.77259e-09
3.0071e-09
2.3917e-09
2.36035e-09
7.53151e-08
8.61076e-08
1.67462e-08
1.51537e-09
1.83324e-05
1.53995e-05
1.03024e-06
9.96536e-08
6.25041e-08
1.3821e-07
2.38143e-08
2.4009e-08
2.39388e-08
2.75482e-05
0.000426086
3.43763e-10
5.22829e-10
5.22557e-10
4.80475e-10
2.23568e-09
1.63501e-09
3.01789e-09
1.17446e-09
4.64382e-06
1.53254e-05
3.94199e-06
6.25041e-08
5.65608e-08
1.62472e-07
5.84083e-08
2.3952e-08
1.8533e-08
0.000115424
0.000405467
3.71992e-11
7.36659e-11
9.82485e-11
1.24039e-10
1.92448e-10
2.0664e-10
1.00628e-09
1.03654e-09
1.17446e-09
5.45652e-06
5.44164e-06
3.78312e-07
3.15511e-08
3.15552e-08
3.15511e-08
5.26882e-08
-4.70835e-10
0.000665854
0.00939867
3.84156e-12
1.14268e-11
2.6761e-11
5.26583e-11
9.03467e-11
5.50872e-11
6.09376e-11
3.05816e-08
1.21121e-07
9.04391e-08
1.51555e-06
8.51753e-07
3.2419e-08
3.15321e-08
4.96719e-08
8.88172e-08
4.67003e-09
0.00361828
0.0263155
6.04158e-13
2.87106e-12
8.96878e-12
2.91863e-11
3.56267e-11
3.75273e-11
5.67003e-09
1.70426e-07
1.75351e-07
8.12965e-08
1.46789e-08
2.86687e-07
9.79149e-08
3.25731e-08
9.17949e-08
9.13536e-08
4.14884e-09
0.0101635
0.0263133
3.79513e-13
2.18675e-12
9.15905e-12
3.69211e-11
5.61092e-11
4.22093e-11
4.57504e-11
1.37584e-07
1.75351e-07
8.80261e-08
5.17229e-09
2.60628e-09
1.19991e-08
3.36579e-08
9.11605e-08
7.2238e-08
3.67207e-09
0.0116993
0.0263464
5.55099e-13
3.80034e-12
1.947e-11
6.42308e-11
1.2347e-10
6.97286e-11
6.27029e-11
1.83135e-08
6.55509e-08
3.66941e-08
3.20337e-09
1.18504e-09
1.04817e-09
2.33814e-08
8.94797e-08
2.17453e-08
2.68528e-09
0.00349106
0.0263001
7.40194e-13
6.75089e-12
4.11329e-11
1.18974e-10
2.44465e-10
2.27618e-10
1.96093e-10
2.01137e-10
4.82166e-10
2.36162e-09
2.17983e-09
1.0317e-09
9.88553e-10
1.04817e-09
8.04748e-08
2.11788e-08
1.87988e-09
0.000347908
0.0261496
8.1511e-13
8.51505e-12
4.97798e-11
1.46141e-10
2.94344e-10
3.72339e-10
3.65944e-10
3.41299e-10
3.89096e-10
4.79596e-10
1.15118e-09
9.06132e-10
1.0041e-09
7.72912e-09
3.01263e-09
1.69187e-09
1.7559e-09
1.87261e-09
0.026005
7.2618e-13
9.02183e-12
4.50487e-11
1.44027e-10
3.13776e-10
3.9927e-10
3.7677e-10
3.70834e-10
3.80469e-10
4.28992e-10
6.72217e-10
8.2265e-10
8.35109e-10
3.9968e-09
2.42383e-09
1.40157e-09
1.69187e-09
2.32288e-09
0.0253775
4.74029e-13
8.27536e-12
2.80181e-11
1.76937e-10
3.40006e-10
4.19191e-10
5.62766e-10
2.48869e-09
1.69139e-09
5.57076e-10
6.68218e-10
8.00587e-10
8.62719e-10
8.48014e-10
7.7625e-10
7.59143e-10
1.86143e-09
3.03914e-09
0.0161361
2.26081e-13
4.80784e-12
1.35396e-11
2.36894e-10
3.48937e-10
3.46445e-10
4.38088e-09
9.22912e-09
9.59671e-09
3.55723e-09
6.90619e-10
7.82657e-10
8.4115e-10
7.73998e-10
7.77182e-10
4.30073e-08
4.50477e-08
5.16918e-09
0.00126516
9.16955e-14
1.7611e-12
4.23158e-12
1.71612e-10
3.83285e-10
9.29431e-10
3.87407e-09
8.34508e-09
1.01902e-08
1.01897e-08
5.12952e-09
1.01947e-09
7.76748e-10
7.75369e-10
7.75236e-10
1.64967e-07
1.11153e-07
1.08025e-08
3.40466e-08
8.02126e-14
6.75876e-13
3.53418e-12
1.01989e-10
6.38188e-10
1.59796e-09
1.57526e-09
1.67843e-09
4.71992e-09
1.27668e-08
1.23937e-08
7.00359e-09
1.35761e-09
7.76748e-10
3.50646e-08
1.92732e-07
1.21557e-07
1.93825e-08
3.40466e-08
1.75125e-13
8.86905e-13
4.41544e-12
4.23e-11
5.39301e-10
3.4564e-10
4.08757e-08
2.88423e-08
2.91573e-08
1.42344e-08
1.21781e-08
9.3027e-09
2.07632e-09
8.22633e-10
1.05347e-07
1.92732e-07
1.44883e-07
4.68442e-08
1.69025e-05
4.87653e-13
1.88915e-12
4.49637e-12
1.28707e-11
1.47393e-10
3.61732e-10
1.01993e-07
9.58351e-08
4.32319e-08
4.78021e-09
4.55328e-09
4.03091e-09
1.29759e-09
8.9946e-10
6.00063e-08
1.90484e-07
1.20689e-07
9.09137e-08
0.00299277
7.05565e-13
3.77234e-12
6.60808e-12
1.01387e-11
3.58654e-11
2.26658e-11
5.83717e-08
2.9301e-07
4.28245e-08
1.44967e-09
1.13398e-09
9.67991e-10
9.30406e-10
9.3215e-10
2.41365e-08
2.286e-08
2.65399e-08
4.24596e-07
0.00584782
4.83099e-13
4.04041e-12
1.07463e-11
1.4084e-11
2.17637e-11
2.20362e-11
1.21585e-08
3.27355e-07
4.84566e-09
3.20187e-09
1.46695e-09
1.13517e-09
9.67907e-10
9.32106e-10
1.74589e-09
3.91054e-09
2.91518e-05
2.725e-05
0.0058509
2.12209e-13
2.86927e-12
1.069e-11
1.78703e-11
2.81731e-11
2.3036e-11
2.34139e-11
5.19651e-10
2.60696e-06
9.82e-06
1.61598e-05
1.6578e-05
1.18914e-05
1.31847e-06
3.91055e-09
5.07335e-06
0.00012525
5.40216e-05
0.0058509
3.85395e-14
1.05192e-12
7.62342e-12
2.0714e-11
6.88949e-11
1.84566e-10
1.31261e-10
1.49603e-10
3.85047e-06
1.69276e-05
1.70067e-05
1.70306e-05
1.70067e-05
3.5713e-06
8.47159e-08
0.000112393
0.000125399
7.69472e-06
0.00579914
5.64334e-15
2.98758e-13
3.84356e-12
1.80833e-11
9.16581e-11
7.55476e-10
1.55336e-09
3.26046e-10
1.80143e-07
8.57691e-06
1.7025e-05
1.7025e-05
8.25208e-06
1.24529e-07
9.16995e-05
0.000156157
0.000114651
2.21898e-06
0.00533606
5.10151e-17
1.11863e-14
5.18976e-13
7.52952e-12
5.48409e-11
1.15824e-09
3.30569e-09
2.71313e-09
1.75433e-09
2.397e-08
5.14875e-06
5.29126e-06
5.934e-07
7.82008e-08
3.38283e-05
0.000149324
4.40905e-05
7.87659e-10
0.00164731
2.13661e-21
3.41849e-17
8.21921e-15
7.16053e-13
1.35584e-11
3.82853e-10
3.15281e-09
3.9282e-09
1.35009e-09
8.67566e-10
5.73806e-09
6.22622e-09
1.96292e-08
7.42651e-08
1.56771e-06
2.74081e-10
4.7654e-11
3.03564e-11
0.000625116
1.9094e-27
1.12701e-20
7.46728e-17
2.24853e-14
1.20881e-12
3.46838e-11
6.29438e-10
2.23428e-09
1.36072e-09
4.79759e-10
6.62079e-10
1.00247e-09
2.5465e-08
2.68562e-08
2.54176e-10
4.76284e-11
3.03513e-11
3.05818e-11
0.00111266
9.41491e-36
3.21462e-28
9.08228e-21
1.02514e-16
2.52418e-14
9.80121e-13
1.11868e-11
1.81815e-10
4.69039e-10
4.6914e-10
4.79759e-10
7.91108e-10
2.86441e-09
1.21939e-09
4.86782e-10
3.11009e-10
3.27874e-11
-5.64734e-36
0.000539584
)
;

boundaryField
{
    leftWall
    {
        type            zeroGradient;
    }
    rightWall
    {
        type            zeroGradient;
    }
    lowerWall
    {
        type            zeroGradient;
    }
    atmosphere
    {
        type            inletOutlet;
        inletValue      uniform 0;
        value           nonuniform List<scalar> 
46
(
-1.09618e-48
-1.6705e-49
-5.60622e-50
-1.61173e-50
-2.19197e-51
-5.55464e-53
-3.14473e-54
-3.9585e-55
-3.31247e-56
-7.03755e-58
0
0
0
0
0
0
0
0
0
0
0
0
0
0
0
0
0
0
0
0
0
0
0
1.11868e-11
1.81815e-10
4.69039e-10
4.6914e-10
4.79759e-10
7.91108e-10
2.86441e-09
1.21939e-09
4.86782e-10
0
0
0
0.000539584
)
;
    }
    defaultFaces
    {
        type            empty;
    }
}


// ************************************************************************* //
