/*--------------------------------*- C++ -*----------------------------------*\
| =========                 |                                                 |
| \\      /  F ield         | OpenFOAM: The Open Source CFD Toolbox           |
|  \\    /   O peration     | Version:  v2012                                 |
|   \\  /    A nd           | Website:  www.openfoam.com                      |
|    \\/     M anipulation  |                                                 |
\*---------------------------------------------------------------------------*/
FoamFile
{
    version     2.0;
    format      ascii;
    class       volScalarField;
    location    "0.8";
    object      epsilon;
}
// * * * * * * * * * * * * * * * * * * * * * * * * * * * * * * * * * * * * * //

dimensions      [0 2 -3 0 0 0 0];


internalField   nonuniform List<scalar> 
2268
(
0.0164335
0.0401821
0.0608082
0.0784695
0.0936703
0.107628
0.121336
0.135148
0.148998
0.162533
0.175201
0.18639
0.195707
0.202353
0.204772
0.202223
0.194845
0.184396
0.1734
0.160889
0.144447
0.110275
0.0527838
0.0210806
0.0310818
0.040008
0.0476982
0.054613
0.0610081
0.067129
0.0730578
0.0787646
0.0841407
0.0890277
0.0932479
0.0966653
0.098982
0.0997169
0.0986991
0.0961424
0.0927971
0.0897504
0.0874936
0.0848566
0.0772451
0.0626532
0.0271601
0.02894
0.0359618
0.0424789
0.0482918
0.0534911
0.0583018
0.0628454
0.0671453
0.0711605
0.0748168
0.0780219
0.0806812
0.0826524
0.0837637
0.0840368
0.0837875
0.0837273
0.0848555
0.0878827
0.0920361
0.0930585
0.0913999
0.0302672
0.0278478
0.0343579
0.0407131
0.0463201
0.0511917
0.055579
0.05965
0.0634654
0.0670207
0.0702855
0.0732147
0.0757599
0.0778716
0.0795216
0.0808511
0.0822849
0.0846505
0.0891484
0.0969037
0.107524
0.116168
0.12314
0.0309755
0.0269546
0.0334581
0.0399817
0.0456522
0.0504435
0.054662
0.0585259
0.0621265
0.0654864
0.0686066
0.0714784
0.0740921
0.0764589
0.078636
0.0808509
0.0836388
0.0880052
0.0954953
0.107902
0.125708
0.144672
0.163716
0.0298062
0.0260188
0.0328576
0.0397298
0.0455624
0.0503558
0.0544968
0.0582535
0.0617433
0.0650118
0.0680866
0.0709875
0.0737347
0.0763779
0.0790279
0.0819744
0.0858555
0.0918769
0.102008
0.118949
0.145012
0.180191
0.227768
0.0274398
0.0249556
0.0323998
0.0397423
0.0457667
0.0505866
0.0546853
0.0583757
0.0617992
0.0650232
0.068098
0.0710651
0.0739652
0.0768709
0.0799231
0.083453
0.0881867
0.0955249
0.107882
0.129062
0.164527
0.224482
0.344683
0.0246273
0.0236715
0.0319586
0.039856
0.0460692
0.0509249
0.0550023
0.0586508
0.062035
0.0652434
0.0683442
0.0713936
0.0744447
0.0775826
0.0809606
0.0849333
0.0902958
0.0986164
0.112716
0.137521
0.182138
0.270509
0.554252
0.936271
1.15996
1.69254
2.07494
2.27077
2.29492
2.24376
2.40503
2.69939
3.06242
3.37555
3.5315
3.4163
2.96742
2.38441
1.92951
1.50985
0.848839
0.218343
1.07948
1.66356
1.50344
1.42296
1.41417
1.33343
1.22062
1.21693
1.27344
1.35963
1.4369
1.46595
1.40166
1.23612
1.05475
0.917147
0.774673
0.535453
0.198551
1.36068
1.64036
1.51837
1.69064
1.83479
1.67076
1.32036
1.12235
1.06637
1.09322
1.13835
1.15188
1.08911
0.942162
0.805623
0.727562
0.650152
0.502303
0.270562
1.4999
1.63064
1.68661
2.18653
2.58713
2.43206
1.77811
1.26381
1.04679
1.02242
1.05258
1.05847
0.990763
0.830112
0.693839
0.637402
0.596641
0.507148
0.345688
1.52322
1.58362
1.84022
2.70304
3.35843
3.49093
2.64023
1.64678
1.13696
1.02685
1.03945
1.03758
0.968008
0.783319
0.629597
0.578877
0.560999
0.509982
0.378085
1.47451
1.46126
1.95361
2.88754
3.70451
4.43239
3.91729
2.46415
1.41081
1.1189
1.08735
1.05896
0.993678
0.779512
0.594447
0.537454
0.530879
0.498521
0.372146
1.39103
1.33431
1.79346
2.43891
3.06541
4.13821
4.67894
3.29674
2.15763
1.42329
1.23767
1.13401
1.0643
0.811322
0.579106
0.508163
0.502937
0.474263
0.350233
1.30813
1.2731
1.62553
1.84876
1.9991
2.86977
3.84922
3.66304
2.70544
1.74583
1.40484
1.26669
1.17166
0.886939
0.578169
0.491114
0.479949
0.443659
0.325383
0.0205245
0.0218718
0.0316946
0.0402813
0.0465924
0.051424
0.0554643
0.0590781
0.0624463
0.0656762
0.0688508
0.072039
0.0753038
0.078732
0.0824796
0.0869169
0.0929078
0.102185
0.117995
0.146326
0.197738
0.288865
0.454398
0.0211301
0.0222324
0.03243
0.0409232
0.0470819
0.0518315
0.0558406
0.0594684
0.0628946
0.0662144
0.0694997
0.0728295
0.0762851
0.0799445
0.0839511
0.0887002
0.09513
0.105108
0.122543
0.155467
0.219479
0.341807
0.559758
0.038409
0.0238175
0.0337685
0.0421131
0.0481712
0.0526233
0.0563096
0.0597711
0.0631533
0.0665037
0.0698917
0.0734026
0.0770731
0.0808973
0.0850435
0.090048
0.0970656
0.107849
0.126875
0.16242
0.22691
0.339476
0.529602
0.0607
0.0416485
0.0458759
0.051595
0.056667
0.0584468
0.0589863
0.0609985
0.0638665
0.0669835
0.0702277
0.0736103
0.0772382
0.0810441
0.0851924
0.0903806
0.0994989
0.111762
0.134923
0.179968
0.253449
0.367362
0.543512
0.0924837
0.0604067
0.0580445
0.0602011
0.0641136
0.0688626
0.0739622
0.0789033
0.0836885
0.0882738
0.0923697
0.0964667
0.101566
0.107931
0.115277
0.122542
0.127502
0.119727
0.141598
0.190612
0.283186
0.42212
0.647583
0.117248
0.0732877
0.0680758
0.0681025
0.0699713
0.0730831
0.0771381
0.0821293
0.0881157
0.0948113
0.101784
0.109703
0.11979
0.13265
0.149021
0.172541
0.211973
0.281488
0.372011
0.470868
0.540605
0.584509
0.619848
0.133769
0.0817454
0.0752573
0.0744174
0.0752818
0.0772563
0.0801859
0.0841899
0.0895181
0.0962144
0.104338
0.114555
0.128079
0.146669
0.17332
0.213804
0.275993
0.36048
0.44078
0.489939
0.499162
0.50184
0.492708
0.144462
0.0870648
0.0796832
0.0785721
0.0791693
0.080686
0.0829892
0.0861951
0.0906007
0.0965274
0.104363
0.114978
0.129909
0.151424
0.183512
0.23218
0.302821
0.390354
0.46735
0.50503
0.50685
0.50662
0.485486
0.151685
0.0899271
0.0817489
0.0805327
0.081207
0.0827273
0.0848675
0.0876881
0.0914514
0.0965601
0.103567
0.113393
0.127766
0.149224
0.181741
0.230717
0.299927
0.383617
0.458941
0.502384
0.528723
0.579982
0.582536
0.156774
0.0910751
0.0821657
0.0808436
0.0816637
0.0833709
0.0856175
0.0883793
0.0918416
0.0963707
0.102532
0.111222
0.123976
0.143428
0.173095
0.217523
0.279754
0.355681
0.429007
0.482653
0.535869
0.652051
0.759902
0.160251
0.0910686
0.081508
0.0800509
0.0809763
0.0828887
0.085341
0.0882272
0.0916469
0.0958835
0.101428
0.109077
0.120138
0.136747
0.162149
0.199984
0.25295
0.31907
0.388081
0.448099
0.514286
0.657385
0.891486
0.162241
0.0902311
0.0801325
0.0785285
0.0795033
0.081578
0.0842417
0.0873264
0.0908586
0.095034
0.100241
0.107133
0.116779
0.130871
0.151892
0.182863
0.22635
0.282057
0.34409
0.404455
0.470289
0.594511
0.853082
0.162758
0.0887708
0.078272
0.0765293
0.0775078
0.0796882
0.0825259
0.0858146
0.0895283
0.0937895
0.0988858
0.105327
0.113952
0.126066
0.143561
0.168796
0.203964
0.249659
0.303154
0.359553
0.420611
0.512824
0.693089
0.16187
0.0868473
0.0760954
0.0742349
0.0751847
0.0774157
0.0803729
0.0838318
0.087734
0.0921487
0.0972813
0.103515
0.111486
0.122181
0.137013
0.15777
0.186234
0.223336
0.268104
0.31788
0.372242
0.441764
0.553889
0.159741
0.0845977
0.0737352
0.0717834
0.0726821
0.0749152
0.0779332
0.0815082
0.085566
0.0901412
0.0953783
0.101561
0.109161
0.118908
0.131843
0.149288
0.17263
0.202827
0.239764
0.282149
0.329073
0.383859
0.457078
0.156607
0.0821471
0.071301
0.0692851
0.0701172
0.0723113
0.0753337
0.0789631
0.0831211
0.087823
0.0931722
0.0993777
0.106788
0.115937
0.127578
0.142674
0.162268
0.187197
0.2177
0.253238
0.293042
0.337702
0.390417
0.152732
0.0796118
0.0688869
0.0668313
0.0675858
0.0697066
0.0726825
0.0763049
0.0804989
0.0852715
0.0907002
0.0969426
0.104258
0.113034
0.123815
0.13729
0.154225
0.17529
0.200819
0.230651
0.264278
0.301463
0.342605
0.148385
0.0770988
0.0665752
0.0644988
0.0651672
0.0671868
0.0700724
0.0736316
0.0777977
0.0825765
0.0880312
0.0942854
0.101535
0.110067
0.120273
0.132643
0.147728
0.166032
0.18787
0.213242
0.241843
0.273288
0.307087
0.143826
0.0747044
0.0644368
0.0623522
0.062927
0.0648226
0.0675818
0.0710296
0.0751101
0.0798323
0.0852528
0.0914741
0.0986505
0.106998
0.116802
0.128412
0.142218
0.158583
0.177757
0.199786
0.224482
0.251492
0.280134
0.139295
0.0725122
0.0625313
0.0604438
0.0609175
0.0626707
0.0652746
0.0685721
0.0725187
0.0771292
0.0824585
0.0885972
0.0956729
0.103855
0.113356
0.124429
0.137348
0.152365
0.169657
0.189259
0.211035
0.234683
0.259539
0.135
0.0705907
0.0609053
0.0588137
0.059178
0.0607739
0.0632004
0.0663175
0.0700923
0.0745463
0.0797362
0.0857466
0.0926895
0.100704
0.109957
0.120635
0.132932
0.147021
0.16301
0.180909
0.200588
0.221781
0.243885
0.131116
0.0689919
0.0595923
0.0574889
0.0577346
0.0591609
0.0613933
0.064308
0.067883
0.072147
0.0771598
0.0830048
0.0897856
0.0976242
0.106658
0.117033
0.12889
0.142346
0.157462
0.174213
0.192466
0.211968
0.232179
0.127774
0.0677512
0.0586115
0.0564837
0.0566007
0.0578471
0.0598732
0.0625701
0.0659258
0.0699758
0.0747843
0.0804359
0.0870315
0.0946843
0.103516
0.113649
0.125193
0.138229
0.152785
0.168813
0.186172
0.204615
0.223656
0.125063
0.0668876
0.0579695
0.0558005
0.0557781
0.0568357
0.0586466
0.0611152
0.0642384
0.0680583
0.0726437
0.078082
0.0844748
0.0919333
0.100573
0.110504
0.121822
0.134589
0.148814
0.164439
0.181315
0.199204
0.217665
0.123034
0.0664052
0.057661
0.0554313
0.0552582
0.0561192
0.0577084
0.0599419
0.0628243
0.0664034
0.0707525
0.075963
0.0821394
0.0893949
0.097845
0.107599
0.118748
0.131348
0.145404
0.160854
0.177554
0.195273
0.213612
0.121705
0.0662951
0.0576713
0.0553598
0.0550247
0.0556826
0.0570452
0.0590391
0.0616753
0.0650062
0.0691093
0.07408
0.0800271
0.0870685
0.0953244
0.104909
0.115918
0.128412
0.142402
0.157832
0.174566
0.192389
0.210935
0.121068
0.0665389
0.0579789
0.055564
0.0550564
0.0555054
0.056638
0.0583894
0.0607756
0.0638527
0.0677013
0.0724206
0.0781239
0.084935
0.0929819
0.102388
0.113259
0.125668
0.139641
0.155136
0.172034
0.190135
0.209106
0.1211
0.0671128
0.0585592
0.0560198
0.0553303
0.0555658
0.0564664
0.0579736
0.060107
0.062925
0.0665105
0.0709652
0.0764066
0.0829647
0.0907758
0.0999748
0.110683
0.122991
0.136946
0.152528
0.169643
0.18811
0.207626
0.121771
0.0679926
0.0593883
0.0567047
0.0558251
0.0558442
0.0565118
0.0577741
0.0596526
0.0622065
0.0655193
0.0696942
0.0748513
0.0811258
0.0886624
0.0976081
0.108101
0.120254
0.13414
0.14977
0.167081
0.185923
0.206022
0.123061
0.0691601
0.0604487
0.0576022
0.0565257
0.0563266
0.0567616
0.0577791
0.0594012
0.0616861
0.0647162
0.068594
0.0734406
0.0793944
0.0866066
0.0952354
0.105435
0.117342
0.131062
0.146647
0.164073
0.183223
0.20386
0.124982
0.070613
0.0617357
0.058707
0.0574271
0.0570088
0.0572123
0.0579864
0.0593517
0.0613634
0.0641007
0.0676634
0.0721711
0.0777624
0.0845923
0.0928273
0.102638
0.114191
0.127623
0.143024
0.160414
0.179726
0.200773
0.127605
0.0723756
0.0632652
0.0600315
0.0585394
0.0579003
0.0578737
0.0584067
0.0595158
0.0612515
0.0636875
0.0669181
0.0710584
0.0762443
0.0826305
0.09039
0.099711
0.110776
0.123753
0.138775
0.155919
0.17518
0.19643
0.131097
0.0745141
0.0650839
0.0616125
0.0598936
0.0590281
0.0587717
0.0590663
0.0599218
0.061381
0.0635097
0.0663941
0.0701418
0.0748819
0.0807658
0.0879702
0.0966846
0.107109
0.11944
0.133855
0.150492
0.169415
0.190579
0.135761
0.0771566
0.0672829
0.0635203
0.0615463
0.0604415
0.059952
0.0600106
0.0606168
0.0618024
0.063622
0.0661512
0.0694865
0.0737469
0.0790772
0.0856446
0.0936391
0.103269
0.114754
0.128311
0.144135
0.16237
0.183067
0.142094
0.0805245
0.0700166
0.0658687
0.0635856
0.0622137
0.0614819
0.0613064
0.0616701
0.0625893
0.0641038
0.0662752
0.0691865
0.0729431
0.077675
0.0835374
0.090712
0.0994063
0.10985
0.12229
0.13697
0.154116
0.173883
0.150909
0.0849856
0.0735264
0.0688227
0.0661308
0.0644416
0.0634501
0.0630426
0.0631753
0.0638417
0.0650625
0.0668819
0.069367
0.0726053
0.0767093
0.0818167
0.0880929
0.0957332
0.104964
0.116044
0.129253
0.14488
0.16319
0.16356
0.0911436
0.078164
0.0725912
0.0693182
0.0672323
0.0659587
0.0653275
0.0652514
0.0656902
0.0666389
0.0681222
0.0701883
0.0729064
0.0763693
0.0806927
0.0860187
0.0925198
0.100404
0.109921
0.121363
0.13506
0.151361
0.182478
0.099975
0.0843802
0.0773773
0.0732522
0.0706661
0.0690969
0.0682729
0.0680365
0.068297
0.0690144
0.0701907
0.0718555
0.0740634
0.0768869
0.0804176
0.0847692
0.0900833
0.0965364
0.104349
0.113794
0.125208
0.138982
0.212114
0.11293
0.0925942
0.0832408
0.077898
0.0747138
0.0728764
0.0719447
0.0716568
0.0718464
0.0724172
0.0733384
0.0746326
0.0763494
0.0785461
0.0812907
0.0846673
0.0887816
0.0937687
0.0998036
0.107115
0.115999
0.126836
0.258326
0.13133
0.102792
0.0898513
0.0829159
0.0790986
0.077098
0.0762347
0.0761194
0.0764804
0.0771146
0.077896
0.0788662
0.0801148
0.0817002
0.0836723
0.0860868
0.089013
0.0925412
0.0967917
0.101928
0.108173
0.115834
0.326355
0.154897
0.113766
0.0961872
0.0875006
0.0831358
0.081144
0.0805953
0.0810116
0.0820377
0.0833131
0.0843045
0.0850246
0.0858197
0.0867993
0.0880051
0.0894688
0.0912269
0.0933269
0.0958342
0.0988408
0.102478
0.106933
0.403257
0.176773
0.122071
0.100398
0.0903975
0.0857082
0.083834
0.0837001
0.0848735
0.0871408
0.0903995
0.0932261
0.0937668
0.0940791
0.0944243
0.0948417
0.0953435
0.0959396
0.0966431
0.0974724
0.0984543
0.0996288
0.101055
0.841536
0.824697
1.05863
1.36555
0.908545
1.20829
1.56996
1.86943
0.835216
1.11394
1.48923
1.87435
0.728315
0.839214
0.960164
1.07716
0.701853
0.699857
0.702394
0.7225
0.55426
0.516416
0.492509
0.4791
0.42611
0.408845
0.397382
0.390149
0.424639
0.407007
0.404264
0.406434
0.488547
0.454249
0.449338
0.45519
0.607003
0.525888
0.504397
0.506768
0.849911
0.683705
0.57494
0.561455
1.05322
1.05485
0.839596
0.638531
0.911874
1.06646
1.16905
1.10986
0.690116
0.808084
0.946671
1.10195
0.536173
0.606791
0.695127
0.806724
0.440182
0.483241
0.535522
0.600056
0.377794
0.406848
0.440337
0.479467
0.334438
0.356185
0.380186
0.406895
0.302678
0.320159
0.338937
0.359193
0.278809
0.293499
0.309028
0.325478
0.260847
0.273608
0.286956
0.300937
0.247569
0.259019
0.270903
0.283255
0.238083
0.248714
0.259689
0.271033
0.231628
0.241838
0.25234
0.263155
0.227502
0.237592
0.247951
0.258594
0.225035
0.235221
0.245667
0.256385
0.223605
0.234024
0.244706
0.255657
0.222635
0.233367
0.244372
0.255649
0.221592
0.232674
0.244044
0.255694
0.219983
0.231411
0.243154
0.255195
0.217382
0.229112
0.241195
0.253606
0.213399
0.22535
0.237704
0.250432
0.20771
0.219755
0.232265
0.245214
0.200083
0.212041
0.224539
0.237552
0.190417
0.202049
0.2143
0.227156
0.178796
0.189803
0.201504
0.213899
0.165529
0.175564
0.186345
0.197896
0.151186
0.159875
0.169321
0.17957
0.136599
0.143588
0.151274
0.159726
0.122816
0.127833
0.133406
0.139604
0.111011
0.113942
0.117213
0.120876
0.102354
0.103282
0.104316
0.105469
1.18141
1.57944
1.64785
1.35245
1.20817
1.44229
2.09455
2.4057
2.53289
2.17604
1.63011
1.41754
1.27486
1.03556
0.613787
0.495045
0.470473
0.414309
0.30069
1.99061
2.09367
1.68989
1.33584
1.1189
1.10077
1.42477
1.73882
1.99376
2.23152
2.04494
1.65187
1.38836
1.17385
0.81008
0.728949
0.650379
0.392992
0.269371
2.12358
1.72824
1.39958
1.21104
1.15094
1.15515
1.36236
1.50872
1.7512
2.36255
2.58225
1.89093
1.52532
1.28551
1.11709
1.33944
1.23871
0.585792
0.26748
1.20442
1.18798
1.26777
1.23119
1.26933
1.43366
1.53071
1.6028
1.92698
2.8051
2.95259
2.01666
1.74756
1.63259
1.60817
2.08749
1.68376
0.769561
0.34158
0.787119
1.07818
1.26745
1.54037
1.61034
1.57216
1.76742
2.08817
2.46958
3.28972
3.01459
1.9637
2.00957
2.21571
2.22454
2.53754
1.68707
0.759993
0.405408
0.476091
0.52459
1.11406
1.65848
1.69409
1.70041
1.99447
2.52851
2.91105
3.38289
2.58641
1.71852
2.17461
2.71843
2.96637
2.96891
1.53887
0.672101
0.46896
0.386845
0.439914
1.20938
1.74523
1.81615
1.85545
2.15345
2.58036
3.06991
3.22597
1.80252
1.38542
2.07524
2.84319
3.60611
4.31545
1.49593
0.576917
0.513891
0.413949
0.488809
1.29967
1.97003
2.03353
2.06075
2.21454
2.64189
2.9223
1.90788
1.15367
1.11907
1.81412
2.86617
3.49795
7.58644
1.4301
0.508493
0.558687
0.469317
0.52471
0.985971
2.11361
2.17149
2.1933
2.32226
2.48449
1.49203
0.946728
0.855691
0.964543
1.54003
2.82659
3.30694
9.57124
1.99994
0.502772
0.588742
0.518132
0.558329
0.664818
1.79742
2.33623
2.41916
2.43296
1.93521
0.77825
0.745886
0.757588
0.90344
1.46381
2.66352
3.18912
8.8333
3.85044
0.548907
0.601015
0.568546
0.592687
0.630785
0.828386
2.3225
2.65452
2.08626
0.829969
0.764719
0.726596
0.736174
0.857081
1.8457
2.69564
3.52088
9.76388
6.44694
0.726691
0.60226
0.628556
0.643996
0.680985
0.723018
0.813194
0.859762
0.864343
0.819915
0.776107
0.736988
0.74997
1.8953
2.58801
2.90847
4.58562
11.8385
7.77398
0.931944
0.600286
0.707628
0.709087
0.721224
0.751425
0.777053
0.795887
0.810485
0.82112
0.803797
0.77116
1.67314
2.60595
3.00567
3.69248
6.50874
13.4312
7.07758
1.25021
0.597015
1.38054
0.826278
0.742514
0.75617
0.763967
0.780998
0.805481
0.828034
0.822305
1.42559
2.3111
2.78073
3.31881
4.59407
7.26005
10.0451
5.37298
1.43653
0.590639
1.04208
1.3084
1.35981
0.784352
0.771918
0.789082
0.816078
0.851798
1.25084
1.81329
2.37264
2.73645
3.30037
4.35303
6.05682
6.36314
4.09498
1.45389
0.58145
0.734189
0.936434
1.09711
1.00643
0.909906
0.928984
0.987305
1.11258
1.49163
1.92754
2.29941
2.53676
2.89287
3.54322
4.32659
4.45271
3.50221
1.59782
0.582391
0.556117
0.664986
0.758929
0.796879
0.8819
0.986435
1.08576
1.20214
1.46426
1.8352
2.11864
2.26262
2.46026
2.8719
3.40369
3.65778
3.2559
1.74188
0.592474
0.456321
0.518928
0.574117
0.616559
0.685686
0.791402
0.922938
1.08621
1.32277
1.61152
1.84577
1.95991
2.1055
2.44495
2.95009
3.33658
3.13596
1.77711
0.634175
0.39534
0.438133
0.476575
0.512124
0.56252
0.644498
0.762706
0.919595
1.1217
1.34658
1.54037
1.66132
1.82235
2.17304
2.71576
3.18037
3.02402
1.64918
0.755608
0.354257
0.387664
0.418348
0.448269
0.48694
0.54657
0.637137
0.763326
0.924987
1.10668
1.27107
1.40545
1.60126
1.98538
2.55542
3.04777
2.83675
1.39476
0.847744
0.325128
0.353364
0.379929
0.406318
0.438263
0.484388
0.553287
0.650736
0.776996
0.921543
1.06426
1.20893
1.43189
1.83268
2.39791
2.87599
2.53002
1.17301
0.812998
0.30449
0.329655
0.353924
0.378399
0.406791
0.445066
0.499807
0.576073
0.674968
0.791198
0.917052
1.06592
1.29969
1.68938
2.21601
2.66297
2.15352
1.07367
0.803344
0.290465
0.313911
0.337037
0.360688
0.387382
0.421217
0.466972
0.528676
0.608025
0.703695
0.815933
0.962435
1.19149
1.54969
2.01567
2.438
1.93888
1.02949
0.785391
0.281651
0.304367
0.327168
0.350712
0.376744
0.40808
0.448107
0.499934
0.56559
0.646368
0.747071
0.886115
1.1
1.41784
1.82145
2.22124
1.99015
1.02897
0.737183
0.276784
0.29949
0.322542
0.346434
0.372372
0.402283
0.43855
0.48358
0.539569
0.609367
0.699999
0.828694
1.0229
1.30179
1.65507
2.03729
2.09304
1.15971
0.676292
0.2747
0.297886
0.321564
0.346069
0.372207
0.401281
0.434976
0.475203
0.52423
0.585735
0.667524
0.784944
0.959187
1.20505
1.52109
1.88906
2.10585
1.4338
0.640905
0.274371
0.298344
0.322868
0.348121
0.374599
0.403161
0.435018
0.471747
0.515632
0.570707
0.644762
0.751204
0.90709
1.12548
1.41083
1.75614
2.03727
1.60028
0.628109
0.27492
0.299864
0.32536
0.351425
0.378309
0.406555
0.437051
0.47116
0.511141
0.561087
0.628377
0.724651
0.864119
1.05872
1.31501
1.62772
1.91652
1.69812
0.65122
0.275608
0.30164
0.328188
0.355112
0.382459
0.410538
0.44002
0.472127
0.509059
0.554792
0.616107
0.703088
0.827783
1.00091
1.22882
1.50592
1.77795
1.7875
0.707687
0.275792
0.302996
0.330676
0.358532
0.38643
0.414501
0.443265
0.473837
0.508332
0.550499
0.606442
0.684856
0.795977
0.949153
1.14998
1.39451
1.65216
1.82111
1.01658
0.274879
0.303329
0.332236
0.361139
0.389735
0.418002
0.446341
0.475775
0.508302
0.547371
0.598378
0.668739
0.767054
0.901237
1.07629
1.29213
1.54188
1.82792
1.99347
0.272315
0.302042
0.332293
0.362403
0.391904
0.42063
0.448866
0.477537
0.508488
0.544824
0.59121
0.653853
0.739799
0.855488
1.00537
1.19367
1.43114
1.76993
2.07913
0.267572
0.29853
0.330225
0.36173
0.392395
0.421896
0.450392
0.478684
0.50843
0.542349
0.584373
0.639549
0.713415
0.810889
0.935631
1.09413
1.30532
1.6085
1.40243
0.260159
0.292195
0.325346
0.358425
0.390535
0.421171
0.45033
0.478654
0.507574
0.539399
0.577336
0.625333
0.6875
0.767187
0.86679
0.992707
1.16352
1.39037
0.977756
0.249663
0.282448
0.316911
0.351692
0.385517
0.417663
0.447921
0.476727
0.505236
0.535326
0.569534
0.610816
0.661989
0.724915
0.80037
0.89336
1.02032
1.19549
0.850365
0.235814
0.268786
0.304226
0.340672
0.376427
0.410457
0.442275
0.472053
0.500638
0.529439
0.560424
0.595789
0.637217
0.685301
0.739226
0.801861
0.891236
1.03004
0.789616
0.218561
0.25085
0.28662
0.324419
0.362271
0.398577
0.432469
0.463733
0.49287
0.520908
0.54944
0.580124
0.613821
0.65005
0.686522
0.724062
0.779933
0.879977
0.769682
0.198162
0.228504
0.263491
0.301955
0.34194
0.381031
0.417743
0.451131
0.481313
0.509174
0.536044
0.563322
0.59166
0.620062
0.644416
0.662859
0.689461
0.74648
0.764446
0.17529
0.201951
0.234339
0.272102
0.313823
0.356544
0.39768
0.434332
0.466143
0.494168
0.519933
0.544888
0.569809
0.593487
0.610876
0.616836
0.623624
0.654445
0.858504
0.15118
0.172008
0.198951
0.233067
0.274649
0.322235
0.372133
0.414498
0.448833
0.47723
0.501958
0.524881
0.547096
0.567471
0.579388
0.576628
0.585339
0.646458
1.12941
0.127775
0.140684
0.158439
0.183284
0.21864
0.269746
0.341099
0.394165
0.43229
0.461264
0.484877
0.505469
0.524163
0.539119
0.539171
0.512188
0.548626
0.690717
1.34104
0.107634
0.111721
0.117489
0.126181
0.141276
0.177254
0.308346
0.378029
0.420562
0.450308
0.473222
0.491876
0.506498
0.511781
0.482039
0.328104
0.355449
0.396952
1.57254
)
;

boundaryField
{
    leftWall
    {
        lowReCorrection 0;
        blending        stepwise;
        n               2;
        type            epsilonWallFunction;
        value           nonuniform List<scalar> 
50
(
0.0164335
0.0210806
0.0271601
0.0302672
0.0309755
0.0298062
0.0274398
0.0246273
0.0205245
0.0211301
0.038409
0.0607
0.0924837
0.117248
0.133769
0.144462
0.151685
0.156774
0.160251
0.162241
0.162758
0.16187
0.159741
0.156607
0.152732
0.148385
0.143826
0.139295
0.135
0.131116
0.127774
0.125063
0.123034
0.121705
0.121068
0.1211
0.121771
0.123061
0.124982
0.127605
0.131097
0.135761
0.142094
0.150909
0.16356
0.182478
0.212114
0.258326
0.326355
0.403257
)
;
    }
    rightWall
    {
        lowReCorrection 0;
        blending        stepwise;
        n               2;
        type            epsilonWallFunction;
        value           nonuniform List<scalar> 
50
(
0.218343
0.198551
0.270562
0.345688
0.378085
0.372146
0.350233
0.325383
0.30069
0.269371
0.26748
0.34158
0.405408
0.46896
0.513891
0.558687
0.588742
0.601015
0.60226
0.600286
0.597015
0.590639
0.58145
0.582391
0.592474
0.634175
0.755608
0.847744
0.812998
0.803344
0.785391
0.737183
0.676292
0.640905
0.628109
0.65122
0.707687
1.01658
1.99347
2.07913
1.40243
0.977756
0.850365
0.789616
0.769682
0.764446
0.858504
1.12941
1.34104
1.57254
)
;
    }
    lowerWall
    {
        lowReCorrection 0;
        blending        stepwise;
        n               2;
        type            epsilonWallFunction;
        value           nonuniform List<scalar> 
62
(
0.0164335
0.0401821
0.0608082
0.0784695
0.0936703
0.107628
0.121336
0.135148
0.148998
0.162533
0.175201
0.18639
0.195707
0.202353
0.204772
0.202223
0.194845
0.184396
0.1734
0.160889
0.144447
0.110275
0.0527838
0.0527838
0.0626532
0.0913999
0.12314
0.163716
0.227768
0.344683
0.554252
0.841536
0.824697
1.05863
1.36555
0.936271
1.07948
1.36068
1.4999
1.52322
1.47451
1.39103
1.30813
0.936271
1.15996
1.69254
2.07494
2.27077
2.29492
2.24376
2.40503
2.69939
3.06242
3.37555
3.5315
3.4163
2.96742
2.38441
1.92951
1.50985
0.848839
0.218343
)
;
    }
    atmosphere
    {
        type            inletOutlet;
        inletValue      uniform 0.1;
        value           nonuniform List<scalar> 
46
(
0.403257
0.176773
0.122071
0.100398
0.0903975
0.0857082
0.083834
0.0837001
0.0848735
0.0871408
0.0903995
0.1
0.1
0.1
0.1
0.1
0.1
0.1
0.1
0.1
0.1
0.1
0.1
0.1
0.1
0.1
0.1
0.1
0.1
0.1
0.1
0.1
0.1
0.308346
0.378029
0.420562
0.450308
0.473222
0.491876
0.506498
0.511781
0.482039
0.1
0.1
0.1
1.57254
)
;
    }
    defaultFaces
    {
        type            empty;
    }
}


// ************************************************************************* //
