/*--------------------------------*- C++ -*----------------------------------*\
| =========                 |                                                 |
| \\      /  F ield         | OpenFOAM: The Open Source CFD Toolbox           |
|  \\    /   O peration     | Version:  v2012                                 |
|   \\  /    A nd           | Website:  www.openfoam.com                      |
|    \\/     M anipulation  |                                                 |
\*---------------------------------------------------------------------------*/
FoamFile
{
    version     2.0;
    format      ascii;
    class       volScalarField;
    location    "0.8";
    object      k;
}
// * * * * * * * * * * * * * * * * * * * * * * * * * * * * * * * * * * * * * //

dimensions      [0 2 -2 0 0 0 0];


internalField   nonuniform List<scalar> 
2268
(
0.00301213
0.00445509
0.00586981
0.00696038
0.0078391
0.00860758
0.00933111
0.0100322
0.0107098
0.0113496
0.0119302
0.0124295
0.0128367
0.0131227
0.0132274
0.0131265
0.0128296
0.0124112
0.0119613
0.0114151
0.0106187
0.00881658
0.0052805
0.00479072
0.00855061
0.0115455
0.0139712
0.015925
0.0175974
0.0191318
0.0205914
0.0219886
0.0233059
0.0245088
0.0255542
0.0263958
0.0269977
0.0273081
0.0272984
0.0269952
0.0264938
0.0259119
0.0251361
0.0234661
0.0192806
0.00981618
0.00568549
0.0107092
0.014424
0.0175071
0.0200814
0.0223013
0.0243083
0.026179
0.0279372
0.0295721
0.0310535
0.0323415
0.0333938
0.0341795
0.0346562
0.0348071
0.0346712
0.0343441
0.0339041
0.0331634
0.0312326
0.0260032
0.0126423
0.006129
0.0119051
0.016141
0.0197757
0.0228717
0.0255307
0.0278987
0.0300707
0.0320845
0.0339392
0.0356134
0.0370756
0.0382914
0.0392365
0.0398807
0.0402188
0.0402982
0.0402119
0.0400042
0.0394227
0.0374221
0.0314795
0.0154236
0.00624731
0.0124945
0.017216
0.0213909
0.0249676
0.0280074
0.0306761
0.0330928
0.0353107
0.0373405
0.0391708
0.0407793
0.0421403
0.0432352
0.044044
0.0445689
0.0448625
0.0450147
0.0450456
0.0446399
0.0425776
0.0360472
0.0186668
0.00611495
0.0126437
0.0178823
0.0226109
0.026634
0.0300054
0.0329275
0.0355467
0.0379326
0.0401076
0.0420705
0.0438078
0.045301
0.0465362
0.0474989
0.0481947
0.0486792
0.0490412
0.0492835
0.0490355
0.0469397
0.040161
0.0233699
0.005809
0.0124521
0.0182711
0.0235669
0.0279958
0.0316507
0.0347834
0.0375692
0.0400939
0.0423911
0.0444688
0.0463206
0.0479339
0.0492981
0.0503992
0.051243
0.0518891
0.0524329
0.0528785
0.0528465
0.0510133
0.0449204
0.0310978
0.00541506
0.0119868
0.0184615
0.0243193
0.0291013
0.0329918
0.0362981
0.0392214
0.0418626
0.0442655
0.0464448
0.0483991
0.0501195
0.0516005
0.0528226
0.0537907
0.0545727
0.0552835
0.0559651
0.0563406
0.0554372
0.0515793
0.0432127
0.0359176
0.0417256
0.053546
0.0612515
0.0649949
0.0655378
0.0651151
0.0684013
0.0738608
0.0799639
0.0847596
0.0866374
0.0838976
0.0755626
0.065323
0.0572753
0.0490455
0.0335253
0.0170749
0.0704394
0.0961531
0.100245
0.113208
0.12634
0.125471
0.119382
0.120509
0.127807
0.137698
0.147049
0.152047
0.147932
0.13334
0.117314
0.105731
0.0919977
0.0671076
0.0225718
0.0824578
0.116528
0.129735
0.159713
0.180819
0.176999
0.16048
0.152497
0.154844
0.163876
0.17399
0.179129
0.172789
0.152938
0.132198
0.118311
0.103052
0.07595
0.027603
0.0883936
0.128033
0.151768
0.199731
0.233177
0.231811
0.202741
0.178582
0.171367
0.177807
0.188233
0.193632
0.185923
0.161246
0.135826
0.119832
0.104402
0.0789096
0.0324194
0.0896381
0.13025
0.16526
0.232998
0.277279
0.289646
0.254078
0.207948
0.185086
0.186863
0.197124
0.202764
0.195063
0.165812
0.135124
0.116779
0.1014
0.0785739
0.0343168
0.087946
0.124759
0.173668
0.246037
0.29815
0.334634
0.314205
0.25091
0.204329
0.197271
0.206024
0.210378
0.203798
0.170205
0.133196
0.111962
0.0966367
0.0757059
0.0338313
0.084728
0.117966
0.164273
0.22521
0.273849
0.32645
0.344384
0.290458
0.248893
0.220289
0.221517
0.220871
0.214869
0.176286
0.131134
0.106895
0.0913692
0.0713921
0.0324153
0.081379
0.115752
0.155969
0.195518
0.220712
0.269061
0.307081
0.296549
0.268544
0.237589
0.234425
0.236185
0.22912
0.186824
0.129147
0.102678
0.086614
0.0666175
0.0308381
0.00477878
0.0111452
0.0187223
0.0253183
0.0304923
0.0346459
0.0381615
0.0412635
0.0440653
0.0466189
0.048944
0.0510421
0.0529057
0.0545228
0.0558774
0.0569762
0.0579037
0.0588129
0.0598425
0.0609965
0.0620009
0.0622167
0.0611824
0.00485817
0.0115162
0.0194236
0.0261828
0.0314912
0.0357964
0.039469
0.0427297
0.0456891
0.0483911
0.0508528
0.0530888
0.055103
0.0568683
0.058368
0.0596315
0.0608031
0.0621449
0.0641061
0.0674239
0.0731346
0.0823619
0.0960026
0.0066516
0.0123869
0.0201627
0.0268832
0.0322093
0.0364485
0.0400335
0.0432732
0.0462607
0.0490243
0.0515941
0.0539912
0.0561778
0.0580653
0.0596553
0.0610544
0.0625196
0.0643612
0.067323
0.072658
0.0818303
0.0965442
0.118865
0.0093151
0.0176317
0.0257278
0.0323229
0.0373104
0.0397871
0.0415847
0.044051
0.0467399
0.0493584
0.0518388
0.0541597
0.0563137
0.058181
0.0597586
0.0611736
0.0630204
0.0655469
0.0697794
0.077976
0.0912347
0.11129
0.14091
0.0124515
0.0239265
0.0316526
0.0378896
0.0434662
0.0484141
0.0529858
0.0573145
0.0615112
0.0655094
0.0691064
0.0724487
0.075799
0.0790105
0.0816098
0.0825087
0.0798641
0.0688224
0.0717873
0.0801569
0.0962401
0.122886
0.169011
0.0147543
0.0292734
0.0373801
0.0434779
0.0487752
0.0536473
0.0583364
0.0631687
0.068332
0.0736986
0.0789802
0.0843998
0.0903015
0.0965659
0.102834
0.109488
0.118163
0.131556
0.145601
0.156403
0.160558
0.164837
0.173895
0.0162362
0.0331052
0.0420811
0.0485093
0.0538206
0.058586
0.0631301
0.0678067
0.0729134
0.0785193
0.0846227
0.0914253
0.0992254
0.108297
0.118949
0.131945
0.148175
0.165969
0.17696
0.176069
0.166435
0.161315
0.159041
0.017168
0.0356846
0.0455792
0.0525608
0.0581522
0.0630017
0.067493
0.0719701
0.0767671
0.0821308
0.0882602
0.0954979
0.10429
0.115074
0.128466
0.145148
0.164992
0.18461
0.195723
0.192812
0.18072
0.171317
0.161443
0.0177817
0.0374224
0.0480218
0.0555261
0.0614935
0.0665734
0.0711522
0.0755519
0.0800974
0.0851069
0.0909032
0.0979022
0.106719
0.117949
0.132263
0.150186
0.171098
0.191422
0.203986
0.203883
0.197256
0.195738
0.18492
0.0182075
0.038621
0.0496823
0.0575803
0.0638928
0.0692461
0.0740018
0.0784472
0.0828733
0.0875983
0.0929838
0.0994826
0.107704
0.11844
0.132324
0.149791
0.170175
0.190451
0.204933
0.209472
0.210022
0.221114
0.226193
0.0184987
0.0394322
0.0507632
0.0589217
0.0655007
0.0711051
0.0760671
0.0806377
0.0850658
0.0896356
0.0946919
0.100674
0.108158
0.117864
0.130563
0.146615
0.165537
0.185105
0.201093
0.209965
0.215751
0.233647
0.262089
0.018671
0.0399205
0.0513816
0.0596922
0.0664576
0.0722669
0.0774288
0.0821632
0.0866795
0.0912185
0.0960819
0.101663
0.108474
0.117151
0.128367
0.142569
0.159557
0.177856
0.194442
0.206367
0.215154
0.232109
0.268603
0.0187281
0.0401196
0.0516129
0.059995
0.0668787
0.072843
0.07818
0.0830865
0.0877402
0.0923408
0.097141
0.102473
0.108772
0.116578
0.126471
0.138895
0.153839
0.170417
0.186641
0.200203
0.210961
0.224604
0.251639
0.0186754
0.0400609
0.0515182
0.0599133
0.0668606
0.0729326
0.078411
0.083477
0.088285
0.0930015
0.0978337
0.103054
0.109018
0.116168
0.124988
0.135884
0.148959
0.163726
0.178934
0.192907
0.204801
0.216634
0.233965
0.0185248
0.0397816
0.0511544
0.05952
0.0664875
0.0726243
0.0782062
0.0834052
0.0883597
0.0932113
0.0981301
0.103335
0.109112
0.115813
0.123829
0.13351
0.14501
0.158095
0.172005
0.185579
0.197858
0.209129
0.221527
0.0182928
0.0393245
0.050578
0.0588828
0.0658354
0.0719986
0.0776453
0.0829423
0.0880179
0.0929964
0.0980195
0.103264
0.108956
0.11537
0.122817
0.131583
0.141834
0.15348
0.166073
0.17884
0.190959
0.202076
0.212654
0.0179985
0.0387343
0.0498446
0.0580654
0.0649747
0.0711305
0.076804
0.0821597
0.0873205
0.0923988
0.0975159
0.102816
0.108479
0.114717
0.121771
0.12987
0.139166
0.149645
0.161049
0.172877
0.184497
0.195416
0.205407
0.0176617
0.0380558
0.0490076
0.0571277
0.063971
0.0700899
0.0757546
0.0811293
0.086334
0.091474
0.0966562
0.102002
0.107653
0.113777
0.120558
0.128173
0.136751
0.14631
0.156705
0.167608
0.178563
0.189112
0.198816
0.0173019
0.0373316
0.0481174
0.0561258
0.0628851
0.0689417
0.0745656
0.0799214
0.0851282
0.090287
0.0954954
0.100858
0.10649
0.112525
0.119103
0.126359
0.134395
0.143238
0.152802
0.16287
0.173112
0.18315
0.192528
0.016938
0.0366016
0.0472204
0.0551103
0.0617719
0.0677456
0.0733009
0.0786034
0.0837728
0.0889079
0.0941005
0.0994431
0.105034
0.11098
0.11739
0.124365
0.131983
0.140268
0.149162
0.158512
0.168074
0.177544
0.186509
0.0165871
0.0359011
0.0463576
0.0541262
0.0606802
0.0665543
0.0720178
0.0772377
0.0823347
0.087407
0.0925431
0.0978281
0.103348
0.109192
0.115445
0.122186
0.129472
0.137317
0.145677
0.154435
0.1634
0.172325
0.180851
0.0162644
0.0352604
0.0455637
0.0532114
0.0596515
0.0654133
0.0707663
0.0758793
0.0808744
0.0858503
0.0908936
0.0960853
0.101504
0.107225
0.113322
0.119854
0.126865
0.13436
0.1423
0.150588
0.159066
0.167528
0.175663
0.015982
0.0347037
0.0448667
0.0523965
0.0587191
0.0643595
0.0695879
0.0745749
0.0794444
0.0842961
0.0892163
0.0942837
0.0995724
0.105152
0.111084
0.117421
0.124194
0.131406
0.139019
0.146948
0.155059
0.163171
0.171019
0.0157489
0.0342486
0.0442871
0.0517046
0.0579086
0.0634218
0.0685153
0.0733618
0.0780874
0.082793
0.0875656
0.0924832
0.097618
0.103036
0.108795
0.114941
0.121502
0.128479
0.135838
0.143503
0.151357
0.159244
0.16693
0.0155708
0.0339063
0.0438388
0.0511512
0.0572379
0.0626207
0.0675724
0.0722682
0.0768362
0.0813791
0.085985
0.0907325
0.0956933
0.100933
0.106508
0.112463
0.118826
0.1256
0.132757
0.140234
0.147926
0.155696
0.163343
0.0154505
0.0336825
0.0435291
0.0507455
0.0567183
0.0619698
0.0667758
0.0713138
0.0757146
0.0800826
0.0845073
0.0890684
0.0938387
0.0988841
0.104263
0.110021
0.116191
0.12278
0.12977
0.137108
0.144707
0.152446
0.160151
0.0153883
0.0335782
0.043361
0.0504922
0.056356
0.0614777
0.0661361
0.0705122
0.074739
0.078923
0.0831554
0.0875173
0.0920829
0.0969199
0.102089
0.107641
0.113612
0.12002
0.126856
0.134082
0.141627
0.149389
0.157216
0.0153828
0.0335916
0.043334
0.0503925
0.0561545
0.0611495
0.0656607
0.0698726
0.0739209
0.0779143
0.0819456
0.0860974
0.0904454
0.0950596
0.100004
0.105334
0.111093
0.117309
0.123985
0.131101
0.138602
0.146407
0.154383
0.0154317
0.0337199
0.0434473
0.0504478
0.0561167
0.0609899
0.0653558
0.0694028
0.0732696
0.0770671
0.0808898
0.0848217
0.08894
0.0933167
0.098019
0.103107
0.108632
0.114632
0.121126
0.128108
0.135547
0.14338
0.1515
0.0155332
0.0339621
0.0437026
0.0506621
0.0562488
0.0610065
0.06523
0.0691121
0.072795
0.0763921
0.0799994
0.0837021
0.0875786
0.0917023
0.0961429
0.100965
0.106227
0.111976
0.118247
0.125057
0.132395
0.140218
0.148439
0.0156878
0.0343224
0.0441079
0.0510461
0.0565629
0.0612125
0.0652969
0.0690143
0.072511
0.0759031
0.0792883
0.0827527
0.0863751
0.0902298
0.0943879
0.0989173
0.103882
0.109345
0.115354
0.121941
0.129115
0.13686
0.145111
0.0159008
0.0348152
0.0446825
0.0516216
0.0570821
0.0616308
0.0655786
0.0691307
0.0724381
0.0756201
0.078776
0.0819928
0.085349
0.0889188
0.0927734
0.0969835
0.101622
0.106754
0.112441
0.118733
0.125663
0.133239
0.141427
0.0161847
0.0354697
0.045462
0.0524267
0.0578441
0.0622974
0.0661089
0.0694926
0.0726056
0.0755708
0.0784897
0.0814493
0.0845278
0.0877977
0.0913296
0.0951965
0.0994696
0.104221
0.109522
0.115439
0.122029
0.129327
0.137332
0.0165621
0.0363362
0.0465058
0.053522
0.0589066
0.0632651
0.0669356
0.0701435
0.0730535
0.0757932
0.078466
0.081159
0.0839487
0.0869054
0.0900981
0.0935953
0.0974676
0.10179
0.10664
0.1121
0.118245
0.125139
0.132819
0.0170701
0.0374947
0.0479048
0.0549966
0.0603508
0.0646056
0.0681218
0.0711398
0.0738337
0.0763362
0.0787525
0.081169
0.0836603
0.0862929
0.0891306
0.0922369
0.0956792
0.0995305
0.103872
0.108793
0.114386
0.120744
0.127937
0.0177663
0.0390675
0.0497922
0.056973
0.0622819
0.0664076
0.0697433
0.0725487
0.0750084
0.0772594
0.0794077
0.0815385
0.0837228
0.0860221
0.0884939
0.0911952
0.0941865
0.0975356
0.101321
0.105633
0.110577
0.116262
0.122797
0.0187428
0.0412354
0.0523456
0.0595981
0.0648145
0.0687616
0.0718759
0.0744391
0.0766444
0.0786305
0.0805012
0.0823387
0.0842095
0.0861695
0.0882695
0.0905584
0.0930876
0.0959158
0.0991132
0.102766
0.106979
0.111873
0.117583
0.020153
0.0442403
0.0557544
0.0629939
0.0680228
0.0717169
0.0745615
0.0768568
0.0787985
0.0805185
0.0821119
0.0836546
0.0852086
0.0868269
0.0885536
0.0904289
0.0924939
0.0947955
0.0973917
0.100357
0.103786
0.107799
0.112539
0.0222531
0.0483031
0.0600918
0.0671319
0.0718347
0.0751963
0.0777404
0.0797734
0.0814811
0.0829741
0.0843227
0.085586
0.0868276
0.088105
0.0894597
0.0909242
0.0925292
0.0943089
0.0963066
0.0985798
0.101206
0.104288
0.107959
0.0252965
0.0534007
0.0650708
0.0716448
0.07589
0.0788816
0.0811508
0.0829947
0.0845807
0.0859804
0.087206
0.0882535
0.0892002
0.0901396
0.0911234
0.0921801
0.0933313
0.0945991
0.0960116
0.0976074
0.0994409
0.101588
0.104153
0.0293559
0.0587729
0.0698183
0.0757175
0.0794702
0.0821417
0.0842347
0.0860358
0.0877116
0.0893094
0.0907605
0.0918106
0.0924997
0.0931009
0.0937095
0.0943565
0.0950562
0.0958203
0.0966633
0.0976057
0.0986779
0.099924
0.101407
0.0334944
0.0626894
0.07291
0.078232
0.0816391
0.084127
0.0861626
0.0880403
0.0899766
0.0921096
0.0945248
0.096517
0.0969683
0.0972044
0.0974182
0.0976415
0.0978813
0.098141
0.0984243
0.0987368
0.0990874
0.0994897
0.0999641
0.0572493
0.0549142
0.0648377
0.0767888
0.114654
0.128574
0.141569
0.15189
0.150364
0.175462
0.203715
0.228625
0.16959
0.185254
0.199961
0.212531
0.182073
0.183358
0.18403
0.186327
0.16576
0.160214
0.156221
0.15358
0.145624
0.142253
0.139733
0.137827
0.146818
0.14304
0.142147
0.142015
0.162187
0.154862
0.153714
0.154514
0.189157
0.17212
0.168101
0.168572
0.239748
0.205803
0.184723
0.182805
0.287798
0.278685
0.23684
0.199408
0.281837
0.300606
0.308666
0.290287
0.254578
0.271823
0.291336
0.311481
0.234058
0.244919
0.258431
0.275217
0.221287
0.228282
0.236544
0.246561
0.212571
0.217921
0.223677
0.230044
0.205486
0.210247
0.215062
0.22
0.198957
0.203472
0.207933
0.21236
0.192705
0.197031
0.201283
0.205462
0.186792
0.190927
0.194989
0.198973
0.181369
0.18533
0.189224
0.193046
0.176559
0.180394
0.184173
0.187888
0.172398
0.176178
0.179913
0.183596
0.168836
0.172631
0.176394
0.18012
0.16575
0.169616
0.173467
0.177296
0.162973
0.16695
0.170928
0.1749
0.160327
0.164431
0.168555
0.172691
0.157631
0.161863
0.166136
0.170439
0.154727
0.159068
0.163475
0.167932
0.151508
0.155925
0.160431
0.165011
0.147865
0.152313
0.156875
0.161537
0.143724
0.148143
0.152705
0.157397
0.139054
0.143372
0.147863
0.152515
0.133881
0.13801
0.142341
0.146866
0.1283
0.132139
0.136203
0.140493
0.122482
0.125918
0.129597
0.133523
0.11668
0.119602
0.122766
0.126185
0.111215
0.113525
0.116054
0.118821
0.106448
0.108083
0.109888
0.111883
0.102737
0.103684
0.104733
0.105898
0.100387
0.100686
0.101017
0.101382
0.0848795
0.143742
0.173102
0.17512
0.172596
0.189994
0.219198
0.229386
0.237752
0.250723
0.250091
0.250565
0.242531
0.208688
0.132421
0.100838
0.0832417
0.0619504
0.0293173
0.163182
0.210787
0.208396
0.192653
0.177177
0.172807
0.181379
0.189038
0.201756
0.234434
0.280908
0.270637
0.254588
0.228485
0.164843
0.124826
0.0957724
0.0566259
0.0276062
0.24628
0.237925
0.220087
0.203796
0.193386
0.179831
0.176748
0.173939
0.186887
0.244007
0.323213
0.293648
0.269369
0.240211
0.197878
0.185942
0.151819
0.0772215
0.028248
0.224934
0.22481
0.224648
0.209168
0.202778
0.194028
0.1832
0.18526
0.209185
0.290572
0.358104
0.309621
0.294729
0.269755
0.233486
0.242452
0.186256
0.0951822
0.0342369
0.193582
0.216437
0.22416
0.216949
0.211878
0.199528
0.209507
0.238283
0.270624
0.349533
0.36745
0.312588
0.327132
0.316232
0.273213
0.268396
0.180677
0.0909383
0.0376404
0.152338
0.155984
0.185962
0.215962
0.215081
0.212703
0.239519
0.292566
0.326306
0.375231
0.347794
0.300754
0.354423
0.368404
0.325337
0.290502
0.163937
0.0806704
0.0410173
0.136323
0.14039
0.18706
0.223219
0.228151
0.232086
0.262318
0.305004
0.34906
0.376508
0.299929
0.27753
0.353973
0.399035
0.383064
0.370797
0.154593
0.0716471
0.0435797
0.142596
0.151858
0.201228
0.246712
0.252566
0.25531
0.271288
0.311681
0.347855
0.305581
0.25013
0.253535
0.330336
0.407552
0.390462
0.536446
0.137428
0.0664858
0.0458716
0.156376
0.162946
0.1936
0.263853
0.26784
0.269023
0.282171
0.309174
0.267394
0.231263
0.222213
0.236519
0.299186
0.4024
0.387472
0.625485
0.169245
0.0673034
0.047215
0.170512
0.176246
0.187005
0.252169
0.284429
0.289951
0.297277
0.283658
0.217019
0.211885
0.211833
0.22861
0.285664
0.385347
0.384897
0.596065
0.279442
0.0709095
0.0477105
0.184667
0.189501
0.195996
0.215893
0.300837
0.315792
0.288992
0.228007
0.220261
0.21159
0.210101
0.222453
0.312594
0.378071
0.398794
0.640019
0.435648
0.0789216
0.0478427
0.198836
0.202767
0.210429
0.218112
0.231679
0.238242
0.240644
0.233969
0.224323
0.21509
0.214263
0.317839
0.359041
0.377039
0.441905
0.732866
0.539957
0.100927
0.0478566
0.214466
0.216715
0.220216
0.22639
0.231099
0.233917
0.235862
0.236287
0.230622
0.221605
0.304527
0.363332
0.381176
0.408251
0.535404
0.811167
0.549741
0.128869
0.0478375
0.34202
0.237461
0.224611
0.228539
0.23021
0.232761
0.236083
0.238161
0.233927
0.292841
0.356186
0.377695
0.40004
0.461925
0.599348
0.729112
0.499401
0.152006
0.0474752
0.309307
0.340221
0.333393
0.233889
0.231924
0.234539
0.238467
0.242545
0.292947
0.33811
0.370511
0.38215
0.407312
0.46737
0.570215
0.599407
0.453954
0.171502
0.0474427
0.267007
0.296683
0.316505
0.297793
0.282671
0.286771
0.293293
0.303456
0.338573
0.364229
0.377835
0.378689
0.393227
0.437828
0.502486
0.520464
0.438099
0.207138
0.0479746
0.241933
0.258367
0.2718
0.278197
0.295587
0.314279
0.326507
0.333298
0.35111
0.37006
0.375097
0.368536
0.374263
0.40898
0.462771
0.487586
0.435815
0.238043
0.049999
0.228413
0.238109
0.246371
0.254172
0.26909
0.289363
0.309198
0.326042
0.34398
0.358477
0.360394
0.352526
0.357367
0.391748
0.445072
0.477757
0.435522
0.25248
0.0538243
0.219579
0.227028
0.233247
0.23974
0.2504
0.266523
0.285734
0.304907
0.322527
0.334495
0.336761
0.333146
0.34306
0.381664
0.438402
0.474505
0.428652
0.241007
0.0605981
0.212191
0.218979
0.224532
0.22995
0.237534
0.248912
0.263881
0.280429
0.296016
0.307258
0.311541
0.313919
0.330815
0.374446
0.433282
0.467974
0.407155
0.20937
0.060002
0.205383
0.21195
0.217329
0.222207
0.228037
0.236242
0.247277
0.260228
0.273121
0.283376
0.289837
0.297785
0.320601
0.366956
0.424379
0.453596
0.366309
0.180851
0.0591366
0.199209
0.205703
0.211131
0.215905
0.220963
0.227382
0.235752
0.24574
0.256126
0.265374
0.273515
0.285609
0.311917
0.357565
0.410042
0.433144
0.316152
0.168718
0.058563
0.193906
0.200451
0.206085
0.211052
0.215955
0.221546
0.228339
0.236289
0.244783
0.253188
0.26237
0.276889
0.304154
0.34639
0.39207
0.412414
0.293183
0.163193
0.0570859
0.189595
0.196337
0.202317
0.207672
0.212775
0.21812
0.224096
0.230785
0.237997
0.245749
0.255395
0.27084
0.297197
0.334849
0.374272
0.395258
0.314855
0.163012
0.0542085
0.186227
0.193305
0.19975
0.205619
0.211119
0.216555
0.222193
0.228174
0.234579
0.241842
0.251523
0.266864
0.291366
0.324663
0.359783
0.383521
0.34677
0.179959
0.0516991
0.183612
0.191139
0.198137
0.204593
0.210596
0.216308
0.221903
0.227544
0.233483
0.240385
0.249838
0.264513
0.286915
0.31667
0.349155
0.375627
0.36428
0.218907
0.0505482
0.181492
0.189542
0.197143
0.204224
0.210779
0.216868
0.222599
0.228143
0.233847
0.240489
0.249585
0.263361
0.28375
0.310642
0.341001
0.3681
0.368358
0.24755
0.0508037
0.179592
0.188201
0.196426
0.204142
0.211268
0.21779
0.223767
0.229372
0.234999
0.241458
0.250153
0.262968
0.281506
0.30588
0.333879
0.359441
0.364027
0.271672
0.0527548
0.177652
0.186828
0.195678
0.204023
0.211726
0.218713
0.225008
0.230779
0.236434
0.242767
0.251056
0.262918
0.279732
0.301724
0.327053
0.350064
0.355994
0.29884
0.0591577
0.175444
0.185175
0.194637
0.203604
0.211884
0.21936
0.226024
0.232033
0.237788
0.244036
0.251923
0.262847
0.278004
0.297644
0.320146
0.340472
0.34718
0.312816
0.0957917
0.17277
0.183029
0.193084
0.202662
0.211525
0.219513
0.22659
0.232893
0.238798
0.244989
0.252475
0.262456
0.275954
0.293185
0.312725
0.330333
0.337372
0.314295
0.116768
0.169481
0.180204
0.190828
0.201009
0.210463
0.218991
0.226522
0.233168
0.239265
0.245418
0.252497
0.261507
0.273287
0.287971
0.30429
0.318829
0.324929
0.305988
0.107064
0.165442
0.176544
0.187694
0.198467
0.208525
0.217623
0.225655
0.232691
0.239018
0.245153
0.251816
0.25982
0.269801
0.281768
0.294532
0.305297
0.308593
0.285791
0.0754544
0.16055
0.171918
0.183517
0.19486
0.205533
0.215239
0.22382
0.231299
0.237898
0.244037
0.250289
0.25727
0.265405
0.274536
0.28347
0.289802
0.288723
0.259599
0.0650731
0.15475
0.166218
0.178141
0.190015
0.201307
0.211657
0.220845
0.228828
0.23575
0.241928
0.247795
0.253786
0.260114
0.266441
0.271492
0.273133
0.267501
0.236953
0.0603039
0.148044
0.159382
0.171461
0.183769
0.195667
0.2067
0.216563
0.225126
0.232444
0.238719
0.24427
0.249381
0.254075
0.257834
0.259273
0.256437
0.247413
0.217807
0.0582351
0.140517
0.151411
0.163384
0.175949
0.188428
0.200198
0.210834
0.220077
0.227875
0.234334
0.239687
0.244124
0.24752
0.249185
0.247584
0.241336
0.229435
0.19848
0.0573094
0.13236
0.142386
0.153856
0.166395
0.179381
0.191983
0.203588
0.213675
0.222056
0.228798
0.234081
0.238063
0.240581
0.24084
0.237289
0.228624
0.213535
0.179695
0.0578017
0.123892
0.132508
0.142879
0.154902
0.168166
0.181784
0.194851
0.206142
0.215263
0.222335
0.227625
0.231319
0.233304
0.23283
0.228216
0.217744
0.200474
0.166697
0.0640026
0.115586
0.122167
0.130578
0.141137
0.153987
0.168861
0.184718
0.198013
0.208165
0.215602
0.220852
0.224245
0.225776
0.224763
0.219247
0.207289
0.191556
0.164778
0.0773822
0.108073
0.112073
0.117481
0.12494
0.135504
0.151029
0.17342
0.190253
0.201831
0.209672
0.214813
0.217772
0.218584
0.216449
0.208572
0.192553
0.186108
0.173765
0.0862072
0.10206
0.103311
0.105037
0.107583
0.111971
0.122677
0.162544
0.184541
0.197641
0.205866
0.210939
0.213504
0.213437
0.209255
0.195353
0.154153
0.156806
0.142861
0.0941776
)
;

boundaryField
{
    leftWall
    {
        type            kqRWallFunction;
        value           nonuniform List<scalar> 
50
(
0.00301213
0.00479072
0.00568549
0.006129
0.00624731
0.00611495
0.005809
0.00541506
0.00477878
0.00485817
0.0066516
0.0093151
0.0124515
0.0147543
0.0162362
0.017168
0.0177817
0.0182075
0.0184987
0.018671
0.0187281
0.0186754
0.0185248
0.0182928
0.0179985
0.0176617
0.0173019
0.016938
0.0165871
0.0162644
0.015982
0.0157489
0.0155708
0.0154505
0.0153883
0.0153828
0.0154317
0.0155332
0.0156878
0.0159008
0.0161847
0.0165621
0.0170701
0.0177663
0.0187428
0.020153
0.0222531
0.0252965
0.0293559
0.0334944
)
;
    }
    rightWall
    {
        type            kqRWallFunction;
        value           nonuniform List<scalar> 
50
(
0.0170749
0.0225718
0.027603
0.0324194
0.0343168
0.0338313
0.0324153
0.0308381
0.0293173
0.0276062
0.028248
0.0342369
0.0376404
0.0410173
0.0435797
0.0458716
0.047215
0.0477105
0.0478427
0.0478566
0.0478375
0.0474752
0.0474427
0.0479746
0.049999
0.0538243
0.0605981
0.060002
0.0591366
0.058563
0.0570859
0.0542085
0.0516991
0.0505482
0.0508037
0.0527548
0.0591577
0.0957917
0.116768
0.107064
0.0754544
0.0650731
0.0603039
0.0582351
0.0573094
0.0578017
0.0640026
0.0773822
0.0862072
0.0941776
)
;
    }
    lowerWall
    {
        type            kqRWallFunction;
        value           nonuniform List<scalar> 
62
(
0.00301213
0.00445509
0.00586981
0.00696038
0.0078391
0.00860758
0.00933111
0.0100322
0.0107098
0.0113496
0.0119302
0.0124295
0.0128367
0.0131227
0.0132274
0.0131265
0.0128296
0.0124112
0.0119613
0.0114151
0.0106187
0.00881658
0.0052805
0.0052805
0.00981618
0.0126423
0.0154236
0.0186668
0.0233699
0.0310978
0.0432127
0.0572493
0.0549142
0.0648377
0.0767888
0.0359176
0.0704394
0.0824578
0.0883936
0.0896381
0.087946
0.084728
0.081379
0.0359176
0.0417256
0.053546
0.0612515
0.0649949
0.0655378
0.0651151
0.0684013
0.0738608
0.0799639
0.0847596
0.0866374
0.0838976
0.0755626
0.065323
0.0572753
0.0490455
0.0335253
0.0170749
)
;
    }
    atmosphere
    {
        type            inletOutlet;
        inletValue      uniform 0.1;
        value           nonuniform List<scalar> 
46
(
0.0334944
0.0626894
0.07291
0.078232
0.0816391
0.084127
0.0861626
0.0880403
0.0899766
0.0921096
0.0945248
0.1
0.1
0.1
0.1
0.1
0.1
0.1
0.1
0.1
0.1
0.1
0.1
0.1
0.1
0.1
0.1
0.1
0.1
0.1
0.1
0.1
0.1
0.162544
0.184541
0.197641
0.205866
0.210939
0.213504
0.213437
0.209255
0.195353
0.1
0.1
0.1
0.0941776
)
;
    }
    defaultFaces
    {
        type            empty;
    }
}


// ************************************************************************* //
