/*--------------------------------*- C++ -*----------------------------------*\
| =========                 |                                                 |
| \\      /  F ield         | OpenFOAM: The Open Source CFD Toolbox           |
|  \\    /   O peration     | Version:  v2012                                 |
|   \\  /    A nd           | Website:  www.openfoam.com                      |
|    \\/     M anipulation  |                                                 |
\*---------------------------------------------------------------------------*/
FoamFile
{
    version     2.0;
    format      ascii;
    class       volScalarField;
    location    "0.8";
    object      nut;
}
// * * * * * * * * * * * * * * * * * * * * * * * * * * * * * * * * * * * * * //

dimensions      [0 2 -1 0 0 0 0];


internalField   nonuniform List<scalar> 
2268
(
4.9689e-05
4.44551e-05
5.09952e-05
5.55659e-05
5.90437e-05
6.19556e-05
6.45832e-05
6.70226e-05
6.92821e-05
7.13285e-05
7.31141e-05
7.45977e-05
7.57774e-05
7.65908e-05
7.68993e-05
7.66856e-05
7.60288e-05
7.51833e-05
7.42597e-05
7.28917e-05
7.02546e-05
6.34405e-05
4.75436e-05
9.79853e-05
0.000211705
0.000299864
0.000368307
0.000417933
0.000456828
0.000490733
0.000522334
0.000552465
0.000580988
0.00060724
0.00063027
0.000648694
0.000662737
0.000673064
0.00067952
0.000682181
0.000680764
0.000673293
0.000649922
0.000584037
0.000433123
0.000138415
0.000107114
0.000356663
0.000520681
0.000649382
0.00075155
0.000836802
0.000912154
0.000981466
0.00104615
0.00110603
0.00116001
0.00120655
0.00124395
0.00127209
0.00129047
0.0012975
0.00129122
0.00126788
0.00121918
0.00112631
0.000953896
0.000653942
0.00015738
0.000111699
0.000458051
0.00068246
0.000864513
0.00101641
0.00114596
0.00126037
0.00136433
0.00145981
0.00154681
0.00162407
0.00168974
0.00174183
0.00177928
0.00180005
0.00180059
0.00177621
0.00171919
0.00161563
0.00144342
0.00117218
0.000767737
0.000173867
0.000113399
0.000521254
0.000797267
0.00103001
0.00122895
0.00139953
0.00154938
0.00168407
0.00180625
0.00191625
0.0020128
0.00209386
0.00215707
0.00220034
0.00222022
0.00221117
0.00216572
0.00207226
0.00191234
0.0016621
0.0012979
0.000808353
0.000191554
0.000112907
0.000552969
0.000875896
0.00115814
0.00140123
0.00160914
0.00179056
0.00195217
0.00209739
0.00222692
0.00233957
0.00243312
0.00250487
0.00255186
0.00256939
0.00255013
0.00248406
0.00235591
0.00214296
0.00181929
0.00136747
0.0008056
0.000215807
0.000110679
0.000559193
0.000927318
0.00125775
0.00154127
0.00178227
0.00199121
0.00217608
0.00234108
0.00248728
0.00261348
0.00271729
0.00279576
0.00284539
0.00286034
0.00283185
0.00274785
0.0025902
0.00233265
0.00194749
0.00142355
0.000808999
0.000252511
0.00010716
0.000546286
0.000959818
0.00133552
0.00165446
0.00192365
0.0021559
0.00236056
0.00254249
0.00270294
0.00284064
0.00295297
0.00303685
0.00308877
0.00310176
0.00306605
0.00296842
0.00278923
0.00250087
0.00207738
0.0015186
0.000885138
0.000303221
0.00012401
0.000135084
0.00015246
0.000162731
0.000167428
0.000168445
0.000170071
0.000175085
0.000181888
0.000187917
0.000191547
0.000191291
0.000185432
0.000173172
0.000161062
0.000153014
0.000143386
0.000119169
0.000120177
0.000413673
0.000500183
0.000601561
0.000810602
0.00101583
0.00106257
0.00105085
0.00107404
0.00115445
0.00125511
0.00135439
0.00141931
0.00140515
0.00129449
0.00117433
0.001097
0.000983281
0.000756945
0.000230943
0.000449727
0.000745013
0.000997645
0.00135791
0.00160379
0.0016876
0.00175546
0.00186483
0.00202358
0.00221088
0.00239341
0.00250708
0.00246719
0.00223433
0.00195235
0.00173149
0.00147006
0.00103355
0.000253447
0.000468835
0.000904749
0.0012291
0.00164202
0.00189145
0.00198856
0.00208051
0.00227109
0.00252484
0.00278297
0.00302956
0.003188
0.00314006
0.00281893
0.00239303
0.00202756
0.00164417
0.00110501
0.000273633
0.000474751
0.000964156
0.00133569
0.00180757
0.00206034
0.0021629
0.00220057
0.00236328
0.00271171
0.00306044
0.00336446
0.00356615
0.00353764
0.00315892
0.00261001
0.00212026
0.00164952
0.00108954
0.000280328
0.000472091
0.000958637
0.00138945
0.00188675
0.00215964
0.00227377
0.00226821
0.00229938
0.00266337
0.00313024
0.00351324
0.00376151
0.0037618
0.00334474
0.00268604
0.00209914
0.00158318
0.00103471
0.0002768
0.000464474
0.000938646
0.0013542
0.00187165
0.00220179
0.00231773
0.0022813
0.00230316
0.002584
0.00306855
0.00356821
0.00387173
0.00390415
0.00344734
0.00267249
0.00202373
0.00149392
0.000967217
0.000270013
0.000455634
0.000947198
0.00134687
0.00186095
0.00219311
0.00227038
0.00220484
0.0021607
0.00239903
0.00291
0.00352065
0.00396348
0.00403245
0.00354172
0.00259632
0.00193204
0.00140677
0.000900264
0.000263041
0.000100139
0.00051113
0.000995353
0.00143222
0.001796
0.00210078
0.00236309
0.00259387
0.00279852
0.00297823
0.00313136
0.00325486
0.00334527
0.00339819
0.00340697
0.00336143
0.0032479
0.00304649
0.00273149
0.0022884
0.00174964
0.00120604
0.000741411
0.000100528
0.000536881
0.00104702
0.00150766
0.00189569
0.00222499
0.00251076
0.00276323
0.00298713
0.00318289
0.0033488
0.0034829
0.00358222
0.00364078
0.00365229
0.00360803
0.00349765
0.00330686
0.00301823
0.00263167
0.00219329
0.00178613
0.00148186
0.000103672
0.000579793
0.0010835
0.0015445
0.00193828
0.00227209
0.00256158
0.00281962
0.0030498
0.00325251
0.00342782
0.00357419
0.00368528
0.00375096
0.00376617
0.00372565
0.00362418
0.00345681
0.00321508
0.00292529
0.00265593
0.00247107
0.00240103
0.000128656
0.000671785
0.00129856
0.00182245
0.00221091
0.00243762
0.00263851
0.00286309
0.00307854
0.00327339
0.00344384
0.00358638
0.00369521
0.0037591
0.00377262
0.00372645
0.00359242
0.00345981
0.00324796
0.00304066
0.00295579
0.00303434
0.00328791
0.000150875
0.000852937
0.00155346
0.00214624
0.00265214
0.00306339
0.00341627
0.00374694
0.00406897
0.0043754
0.00465318
0.00489696
0.00509119
0.00520556
0.00519978
0.00499985
0.00450224
0.00356049
0.00327553
0.00303372
0.00294363
0.00321965
0.00396986
0.0001671
0.00105234
0.00184727
0.00249814
0.00306
0.00354422
0.00397057
0.00437269
0.00476911
0.00515586
0.00551568
0.00584397
0.00612647
0.00632681
0.00638659
0.00625295
0.00592823
0.00553357
0.00512877
0.00467558
0.00429168
0.0041837
0.0043907
0.00017736
0.00120662
0.00211771
0.00284589
0.00346298
0.00399849
0.00447319
0.00491504
0.00534498
0.00576707
0.00617694
0.00656689
0.00691848
0.00719671
0.00734706
0.00732846
0.00715964
0.00687726
0.00639397
0.00569463
0.0049945
0.00466687
0.00462029
0.000183625
0.00131632
0.00234644
0.00316445
0.00384431
0.0044274
0.00494012
0.00540834
0.00585411
0.00628932
0.00671778
0.00713861
0.00753511
0.00787045
0.00809386
0.00816659
0.00809064
0.00785769
0.00737706
0.00662511
0.00579932
0.00521388
0.00483178
0.000187606
0.00140157
0.00253886
0.00344559
0.0041909
0.00482164
0.00536881
0.00585858
0.00631377
0.00675109
0.00718092
0.00760751
0.00802247
0.00839059
0.00866295
0.00879876
0.00878444
0.00859664
0.0081599
0.00744677
0.00662334
0.00594539
0.00528311
0.000190315
0.00147398
0.00270368
0.00369101
0.00449901
0.00517629
0.00575658
0.00626681
0.00673027
0.00716619
0.00758926
0.0080084
0.00842115
0.0088024
0.00910411
0.00928342
0.00931654
0.00917797
0.00881051
0.00818199
0.00740824
0.00674826
0.0060596
0.000192188
0.00153666
0.00284537
0.00390325
0.00476844
0.0054897
0.00610209
0.0066331
0.00710615
0.00754153
0.00795626
0.00836268
0.00876352
0.00914294
0.00946174
0.0096739
0.00974979
0.00966477
0.00937805
0.00885444
0.00814602
0.0074738
0.00693465
0.000193383
0.00158956
0.00296516
0.00408366
0.00499973
0.00576167
0.00640502
0.00695748
0.00744233
0.00788005
0.00828862
0.00868245
0.00906834
0.0094382
0.00976368
0.0100038
0.0101227
0.0100935
0.00988901
0.00947659
0.00885888
0.00815583
0.00761157
0.000193949
0.00163187
0.00306304
0.00423297
0.00519365
0.00599273
0.00666567
0.00724007
0.00773889
0.00818231
0.00858843
0.00897263
0.00934456
0.00970242
0.0100274
0.0102862
0.0104429
0.0104694
0.0103417
0.0100328
0.00952284
0.00885342
0.00822257
0.000193918
0.00166313
0.0031391
0.00435192
0.00535124
0.00618383
0.00688472
0.00748114
0.00799554
0.00844759
0.00885503
0.00923348
0.00959434
0.00994058
0.0102617
0.0105331
0.010723
0.0108023
0.010748
0.010536
0.010141
0.00956102
0.00889447
0.000193345
0.00168364
0.00319399
0.00444165
0.00547388
0.00633631
0.00706322
0.00768117
0.00821201
0.00867473
0.00908651
0.00946273
0.00981575
0.0101519
0.0104673
0.010746
0.0109629
0.0110906
0.0111055
0.0109855
0.0107068
0.0102541
0.00966285
0.000192306
0.00169424
0.00322902
0.0045038
0.00556336
0.00645186
0.00720251
0.00784097
0.00838829
0.0088627
0.00928071
0.00965725
0.0100051
0.0103326
0.010641
0.0109219
0.0111576
0.0113252
0.011402
0.011367
0.0111993
0.0108827
0.0104246
0.000190891
0.00169612
0.00324595
0.00454043
0.0056218
0.00653252
0.00730433
0.00796174
0.00852482
0.00901097
0.00943594
0.00981416
0.0101584
0.0104783
0.0107786
0.0110567
0.011302
0.0114976
0.011624
0.0116616
0.0115921
0.0114006
0.0110835
0.000189198
0.00169058
0.0032468
0.00455392
0.00565171
0.00658065
0.00737078
0.00804514
0.00862263
0.00911972
0.00955136
0.00993144
0.0102725
0.0105851
0.0108759
0.0111469
0.0113931
0.0116038
0.0117638
0.0118566
0.0118657
0.0117777
0.0115847
0.000187323
0.001679
0.0032338
0.0045469
0.00565588
0.00659904
0.00740441
0.00809336
0.00868342
0.00918997
0.00962718
0.0100083
0.0103458
0.0106504
0.0109304
0.0111905
0.0114302
0.011644
0.0118215
0.0119497
0.0120147
0.0120042
0.0119087
0.000185366
0.00166277
0.00320926
0.00452226
0.00563744
0.00659083
0.00740826
0.00810919
0.0087096
0.00922369
0.00966475
0.0100455
0.0103781
0.0106735
0.010941
0.0111871
0.0114146
0.0116218
0.0118028
0.0119484
0.0120472
0.0120886
0.0120626
0.000183422
0.00164328
0.00317562
0.0044831
0.00559985
0.00655961
0.00738588
0.00809604
0.00870437
0.00922378
0.00966662
0.0100451
0.010371
0.0106555
0.0109086
0.0111382
0.0113491
0.0115428
0.0117169
0.0118652
0.0119796
0.0120508
0.0120698
0.000181578
0.00162188
0.00313539
0.00443269
0.00554688
0.00650938
0.00734133
0.00805794
0.00867169
0.00919407
0.00963647
0.0100104
0.0103276
0.0105994
0.0108362
0.011047
0.0112383
0.0114139
0.0115738
0.011715
0.0118316
0.0119164
0.0119614
0.000179914
0.00159984
0.00309106
0.00437446
0.00548251
0.00644446
0.0072791
0.00799947
0.00861617
0.00913923
0.009579
0.00994639
0.0102528
0.0105099
0.0107285
0.0109187
0.0110883
0.0112428
0.0113844
0.0115124
0.011623
0.0117109
0.0117692
0.00017849
0.00157827
0.00304508
0.00431184
0.00541085
0.0063694
0.00720402
0.00792563
0.00854298
0.0090646
0.00949973
0.00985864
0.0101525
0.0103931
0.0105921
0.0107601
0.0109065
0.0110382
0.0111593
0.011271
0.0113715
0.0114569
0.0115218
0.000177353
0.00155812
0.00299969
0.00424813
0.00533598
0.00628877
0.00712102
0.00784163
0.00845758
0.0089759
0.00940472
0.00975362
0.0100335
0.0102564
0.0104343
0.0105792
0.0107013
0.0108093
0.010909
0.0110031
0.0110918
0.0111727
0.0112413
0.00017653
0.00154017
0.00295694
0.00418643
0.00526176
0.00620703
0.00703495
0.00775266
0.00836547
0.008879
0.00930024
0.00963805
0.00990305
0.0101073
0.0102635
0.0103845
0.0104818
0.0105656
0.0106433
0.0107195
0.010796
0.0108717
0.0109434
0.000176033
0.00152504
0.00291857
0.0041295
0.00519177
0.00612834
0.00695043
0.00766368
0.00827194
0.00877952
0.00919235
0.00951851
0.00976824
0.00995363
0.0100879
0.0101847
0.010257
0.0103163
0.0103717
0.0104296
0.0104935
0.0105637
0.0106382
0.000175861
0.00151321
0.00288605
0.00407975
0.00512919
0.00605647
0.00687169
0.00757926
0.00818186
0.00868267
0.00908664
0.00940106
0.00963572
0.00980261
0.00991534
0.00998826
0.0100355
0.01007
0.0101026
0.0101415
0.0101918
0.0102554
0.0103315
0.000176006
0.00150506
0.00286066
0.00403932
0.00507689
0.00599488
0.00680255
0.0075035
0.00809954
0.00859299
0.00898794
0.00929094
0.00951123
0.00966057
0.00975267
0.00980245
0.009825
0.00983458
0.00984367
0.00986213
0.00989681
0.00995153
0.0100267
0.000176459
0.00150098
0.0028436
0.00401024
0.00503759
0.00594676
0.00674656
0.00744012
0.00802879
0.00851435
0.00890026
0.00919241
0.00939943
0.00953264
0.00960564
0.00963357
0.00963223
0.0096169
0.00960158
0.00959804
0.00961499
0.0096576
0.00972758
0.000177223
0.00150146
0.00283621
0.00399463
0.00501406
0.00591535
0.00670715
0.00739255
0.00797293
0.00844992
0.0088267
0.00910863
0.00930371
0.00942266
0.00947861
0.00948661
0.00946275
0.0094234
0.00938373
0.00935687
0.00935315
0.00937952
0.00943928
0.000178324
0.00150726
0.00284022
0.00399508
0.00500949
0.00590415
0.00668785
0.00736414
0.00793495
0.00840233
0.00876954
0.0090417
0.00922622
0.00933304
0.00937453
0.00936521
0.0093212
0.00925903
0.00919471
0.00914271
0.00911505
0.00912052
0.00916423
0.000179827
0.00151956
0.00285803
0.00401494
0.00502784
0.00591729
0.0066926
0.00735835
0.00791767
0.00837368
0.00873027
0.00899265
0.00916779
0.00926472
0.00929476
0.00927148
0.00921013
0.00912699
0.00903849
0.00896013
0.00890546
0.00888523
0.00890657
0.000181845
0.0015401
0.00289302
0.00405877
0.00507421
0.00595985
0.00672594
0.00737887
0.00792377
0.00836562
0.00870959
0.00896144
0.00912788
0.00921705
0.00923896
0.00920556
0.00913073
0.00902984
0.00891903
0.00881429
0.00873046
0.00868013
0.00867271
0.00018456
0.00157128
0.00294985
0.00413271
0.00515526
0.00603805
0.00679309
0.00742954
0.00795569
0.00837923
0.00870737
0.00894689
0.00910457
0.00918773
0.00920481
0.00916582
0.00908265
0.00896894
0.00883972
0.00871069
0.00859734
0.00851382
0.00847185
0.000188244
0.00161632
0.00303474
0.00424472
0.00527914
0.00615903
0.00689946
0.00751395
0.00801521
0.00841473
0.00872242
0.00894662
0.00909447
0.00917265
0.00918801
0.00914838
0.00906314
0.00894347
0.00880233
0.0086541
0.00851391
0.00839675
0.00831624
0.000193301
0.00167902
0.00315498
0.00440376
0.00545431
0.00632931
0.00704916
0.00763393
0.00810241
0.0084708
0.00875226
0.00895699
0.00909285
0.00916609
0.00918217
0.00914672
0.00906637
0.00894928
0.00880549
0.00864689
0.00848693
0.00834008
0.00822082
0.000200314
0.00176193
0.00331559
0.00461557
0.005685
0.0065505
0.00724124
0.00778679
0.00821366
0.00854342
0.00879255
0.00897311
0.00909389
0.0091611
0.00917915
0.0091518
0.00908303
0.00897788
0.00884292
0.0086866
0.00851926
0.00835304
0.00820139
0.000210115
0.00185944
0.00350986
0.00487264
0.0059619
0.00681138
0.00746362
0.00796086
0.00833872
0.00862429
0.00883669
0.0089891
0.00909138
0.00915036
0.00917007
0.00915294
0.0091009
0.00901623
0.00890219
0.00876339
0.00860611
0.00843842
0.00827031
0.000222944
0.00195421
0.00370727
0.00514148
0.00625136
0.00707986
0.00768749
0.00813187
0.00845843
0.00869945
0.00887561
0.00899893
0.00907993
0.0091277
0.009147
0.00913976
0.00910669
0.00904822
0.00896509
0.00885869
0.00873132
0.00858635
0.00842851
0.000237654
0.00200703
0.00385627
0.00536435
0.00649591
0.00730434
0.00786987
0.00826592
0.00854692
0.00875031
0.00889863
0.00899865
0.00905688
0.00908999
0.00910529
0.00910496
0.00908933
0.00905806
0.00901071
0.0089469
0.00886637
0.00876903
0.00865498
0.000250384
0.00200085
0.00391927
0.00548639
0.00663563
0.00743176
0.00797003
0.0083345
0.00858479
0.00876256
0.00889546
0.00899317
0.00902512
0.00903901
0.00904564
0.00904716
0.00904381
0.00903536
0.00902144
0.00900158
0.00897521
0.00894158
0.00889962
0.000350517
0.000329092
0.000357399
0.000388626
0.00130219
0.00123133
0.00114892
0.00111069
0.0024363
0.00248741
0.002508
0.00250981
0.00355404
0.0036805
0.00374789
0.00377405
0.00425095
0.00432349
0.00433948
0.00432472
0.00446158
0.00447346
0.00445972
0.00443086
0.00447904
0.0044546
0.00442213
0.00438206
0.00456861
0.00452432
0.00449834
0.00446604
0.00484584
0.00475158
0.00473254
0.00472048
0.00530511
0.00507006
0.00504209
0.00504668
0.00608665
0.00557539
0.00534149
0.00535677
0.00707781
0.00662641
0.0060129
0.00560462
0.00783979
0.00762591
0.00733475
0.00683329
0.00845208
0.00822922
0.00806923
0.00792398
0.00919566
0.00889712
0.00864706
0.00845023
0.010012
0.00970562
0.0094035
0.00911798
0.0107645
0.0105053
0.0102259
0.00993356
0.0113629
0.0111694
0.010949
0.0107054
0.0117701
0.0116382
0.0114808
0.0112995
0.0119873
0.0119044
0.0117994
0.011673
0.0120385
0.0119907
0.0119247
0.0118402
0.0119584
0.0119344
0.0118955
0.011841
0.011784
0.0117757
0.0117555
0.0117225
0.0115483
0.0115511
0.0115447
0.0115281
0.0112769
0.0112888
0.011294
0.0112914
0.0109875
0.0110078
0.0110238
0.0110344
0.0106904
0.010719
0.0107454
0.0107687
0.0103911
0.0104272
0.0104635
0.0104988
0.0100918
0.0101342
0.0101789
0.0102249
0.00979451
0.00984068
0.0098915
0.00994582
0.00950366
0.00955052
0.00960394
0.00966289
0.00922109
0.00926523
0.00931777
0.00937772
0.00895038
0.00898806
0.00903577
0.00909265
0.00869756
0.00872472
0.00876332
0.00881265
0.00847175
0.00848418
0.00850907
0.00854595
0.00828581
0.0082794
0.00828583
0.00830504
0.00815662
0.00812806
0.00811175
0.00810805
0.00810436
0.00805263
0.00801101
0.00798037
0.00814927
0.0080781
0.00801305
0.00795526
0.00830358
0.00822463
0.00814649
0.00807003
0.00855713
0.00849143
0.0084223
0.00834979
0.00886118
0.00883403
0.00880404
0.00877085
0.00054884
0.00117735
0.00163656
0.00204075
0.00221909
0.00225253
0.00206455
0.00196851
0.00200851
0.00259995
0.00345319
0.00398609
0.00415255
0.00378499
0.0025712
0.00184863
0.00132553
0.000833692
0.000257259
0.00120392
0.00190994
0.00231294
0.00250057
0.00252501
0.00244155
0.00207813
0.00184963
0.00183748
0.00221659
0.00347289
0.0039906
0.00420163
0.00400264
0.00301894
0.00192379
0.00126928
0.000734325
0.000254628
0.00257059
0.00294795
0.00311483
0.00308656
0.00292442
0.00251962
0.00206376
0.00180479
0.00179501
0.00226811
0.00364101
0.00410412
0.00428131
0.00403976
0.00315465
0.00232313
0.00167466
0.000916169
0.000268488
0.00378071
0.0038288
0.00358267
0.0031982
0.00291547
0.00236332
0.00197335
0.00192719
0.00204373
0.00270895
0.00390894
0.00427829
0.0044736
0.00401148
0.00305094
0.00253435
0.00185432
0.00105952
0.000308844
0.0042848
0.00391032
0.00356803
0.00274999
0.00250899
0.00227906
0.00223512
0.00244716
0.00266901
0.00334241
0.00403099
0.00447829
0.00479277
0.00406201
0.00301999
0.00255495
0.00174147
0.000979324
0.000314527
0.00438702
0.00417428
0.00279373
0.00253098
0.00245758
0.00239461
0.00258878
0.00304666
0.00329188
0.00374586
0.00420911
0.00473709
0.0051988
0.00449338
0.00321133
0.00255825
0.00157179
0.000871438
0.00032288
0.00432356
0.00403224
0.00260402
0.00256953
0.0025795
0.00261271
0.00287583
0.00324469
0.00357204
0.00395485
0.00449159
0.00500359
0.00543394
0.00504033
0.00366223
0.00286741
0.00143785
0.000800804
0.000332613
0.00442086
0.00424599
0.00280406
0.00278067
0.00282319
0.00284678
0.00299102
0.0033094
0.00372661
0.00440499
0.00488081
0.00516968
0.00541364
0.00521562
0.00392272
0.00341394
0.00118857
0.000782375
0.00033897
0.00468941
0.00455417
0.00342128
0.00296444
0.00297328
0.00296977
0.00308573
0.00346267
0.0043129
0.00508428
0.00519353
0.00521979
0.00523113
0.00515578
0.00408599
0.00367881
0.00128901
0.00081086
0.000340782
0.00505026
0.00500718
0.00473418
0.00318402
0.00311656
0.00312771
0.0032691
0.003742
0.0054465
0.00541715
0.00533083
0.00520636
0.0050173
0.00501754
0.00418081
0.00361999
0.00182522
0.000824428
0.000340867
0.00539826
0.00545307
0.00548093
0.00506391
0.00350711
0.00338111
0.00360285
0.00563738
0.00570971
0.00554546
0.00539655
0.00519636
0.00476476
0.00477231
0.00406527
0.00377577
0.00264948
0.000771407
0.00034205
0.00566092
0.00574587
0.00585217
0.00592179
0.0059405
0.00594158
0.00602986
0.00600886
0.00583537
0.00564964
0.00550926
0.00479711
0.00448298
0.00439897
0.00383267
0.00408314
0.00337534
0.000983708
0.000343375
0.00585
0.00596101
0.0060516
0.00613862
0.0061857
0.00618748
0.00617754
0.00611951
0.0059552
0.00573136
0.00498841
0.00455915
0.00435064
0.00406235
0.00396378
0.00440908
0.00384303
0.00119551
0.00034498
0.00762596
0.00614187
0.00611508
0.00621645
0.00624334
0.00624331
0.00622755
0.00616505
0.00598921
0.00541394
0.00494059
0.00461707
0.00433977
0.00418011
0.00445309
0.00476295
0.00417759
0.00144761
0.000343442
0.00826267
0.00796206
0.00735657
0.00627696
0.00627139
0.00627407
0.00627144
0.00621572
0.00617472
0.00567402
0.00520729
0.0048031
0.00452412
0.0045162
0.00483143
0.00508177
0.00452913
0.00182074
0.000348392
0.00873938
0.0084596
0.00821773
0.00793025
0.00790329
0.00796716
0.0078414
0.00744909
0.00691649
0.00619426
0.00558764
0.00508776
0.0048106
0.00486913
0.00525225
0.00547519
0.00493225
0.00241676
0.000355673
0.00947258
0.00903453
0.0087607
0.00874089
0.00891649
0.00901168
0.00883679
0.00831672
0.00757724
0.00671592
0.00597686
0.00540242
0.00512407
0.00524178
0.00566272
0.00584963
0.0052502
0.00292775
0.000379749
0.01029
0.00983299
0.00951526
0.00943027
0.00950416
0.00952207
0.00932273
0.00880795
0.0080505
0.00717679
0.00633318
0.00570676
0.00545903
0.00564919
0.00604323
0.00615681
0.00544369
0.00322838
0.000411141
0.0109763
0.0105876
0.0102741
0.0101006
0.0100317
0.00991954
0.00963408
0.00909872
0.00834635
0.00747811
0.00662618
0.00601252
0.00581235
0.00603304
0.00636936
0.00637157
0.00546847
0.00316983
0.000437385
0.0114388
0.0111325
0.0108458
0.0106163
0.0104284
0.010202
0.00983615
0.00927214
0.00852584
0.00767763
0.00687232
0.00631046
0.00615108
0.00635591
0.00661183
0.00646701
0.00525946
0.00282862
0.000382216
0.0116766
0.0114416
0.0111886
0.0109369
0.0106787
0.0103696
0.00994628
0.00936582
0.00864039
0.00784246
0.00710397
0.00660161
0.00646043
0.00661277
0.00675954
0.00643865
0.00477325
0.00250948
0.000387138
0.0117297
0.0115522
0.0113354
0.0110871
0.0108022
0.0104552
0.0100081
0.00943446
0.00874718
0.00801079
0.00734192
0.00688753
0.00673721
0.00681123
0.00682852
0.00634075
0.00417721
0.00238613
0.000384227
0.0116501
0.0115201
0.0113412
0.0111145
0.010835
0.0104873
0.0100487
0.00950472
0.0088692
0.00819869
0.00759303
0.00716938
0.0069878
0.00696832
0.00686358
0.00627878
0.00398997
0.00232822
0.000373434
0.0114865
0.0113985
0.0112599
0.0110674
0.0108152
0.0104928
0.0100862
0.00958836
0.00901328
0.00840906
0.00785791
0.00745038
0.00722669
0.00711724
0.00692151
0.00633007
0.0044831
0.00232422
0.000358758
0.0112768
0.0112291
0.0111335
0.0109836
0.0107726
0.0104917
0.0101318
0.00968959
0.00917857
0.0086383
0.00813395
0.00773444
0.00746942
0.00728734
0.00703893
0.0064978
0.0051707
0.00251329
0.000355692
0.0110455
0.011038
0.0109877
0.0108859
0.0107241
0.0104939
0.0101883
0.00980609
0.00935904
0.00887884
0.00841574
0.0080223
0.00772406
0.00748951
0.00721315
0.00672217
0.00567132
0.00300798
0.000358806
0.0108049
0.0108377
0.0108338
0.0107827
0.0106741
0.0104991
0.0102514
0.00992996
0.0095448
0.00912052
0.00869524
0.00830975
0.00798849
0.00771654
0.00741788
0.00694408
0.00599427
0.00344646
0.000369827
0.0105587
0.0106306
0.0106728
0.0106727
0.0106185
0.0105002
0.010311
0.0100497
0.00972374
0.00935177
0.00896259
0.00858857
0.00825361
0.00795356
0.00762945
0.00714359
0.00622296
0.0039117
0.000384626
0.0103061
0.0104145
0.0105004
0.0105496
0.0105489
0.0104867
0.0103554
0.0101526
0.00988311
0.00956076
0.0092072
0.0088486
0.00850767
0.00818591
0.00783414
0.00732378
0.00641518
0.00449648
0.000445065
0.0100447
0.0101852
0.0103108
0.0104061
0.010456
0.010448
0.0103727
0.0102262
0.0100109
0.00973632
0.00941869
0.00907927
0.00873866
0.00840039
0.00802138
0.00748139
0.00656599
0.00483597
0.000812379
0.00977322
0.00993958
0.0100993
0.0102356
0.0103323
0.0103749
0.0103528
0.0102601
0.0100967
0.00986858
0.00958749
0.00927044
0.00893491
0.00858394
0.00817782
0.00760043
0.0066437
0.00486363
0.000615573
0.00949326
0.00967618
0.00986295
0.0100342
0.0101722
0.0102611
0.0102884
0.0102464
0.0101325
0.00994949
0.00970538
0.00941303
0.00908586
0.00872421
0.00828878
0.00766431
0.00663956
0.00476096
0.00049619
0.00920645
0.00939636
0.00960142
0.00980016
0.0099732
0.0101029
0.0101752
0.0101801
0.0101128
0.00997326
0.00976604
0.00949979
0.00918308
0.00881181
0.00834453
0.00766686
0.00656594
0.00457002
0.000365368
0.00891715
0.00910361
0.0093164
0.00953428
0.0097352
0.00989975
0.0100118
0.0100593
0.0100352
0.00993677
0.00976557
0.009526
0.00922123
0.00884182
0.00834337
0.00761421
0.0064481
0.00436232
0.000389776
0.00863272
0.00880354
0.00901226
0.00923966
0.00946056
0.00965343
0.00979978
0.00988531
0.00990037
0.00983999
0.00970307
0.00949001
0.00919857
0.00881369
0.00828828
0.00751559
0.00631183
0.00422692
0.000384882
0.00836475
0.00850578
0.00869717
0.0089218
0.00915369
0.00936819
0.00954369
0.00966278
0.00971302
0.00968723
0.0095822
0.00939458
0.00911755
0.00873057
0.00818424
0.00738082
0.00618153
0.00414507
0.000386542
0.00813075
0.00822514
0.00838212
0.00858837
0.00882067
0.00905002
0.00925057
0.00939989
0.00948211
0.0094875
0.00941046
0.00924576
0.00898303
0.00859686
0.00803587
0.00723952
0.00607442
0.00402906
0.000384046
0.00795678
0.00798517
0.00808545
0.00825241
0.00846927
0.00870575
0.00892974
0.00910851
0.00922019
0.00925294
0.00919968
0.00905458
0.00880429
0.0084191
0.00786376
0.00709682
0.00595213
0.0038931
0.000393348
0.00788076
0.00782487
0.00784038
0.00793645
0.00811028
0.00834147
0.00859235
0.00880546
0.00894665
0.00900295
0.00896883
0.00883804
0.00859719
0.00822073
0.0076733
0.00691776
0.00580011
0.0038214
0.000429433
0.00795347
0.00780908
0.0077132
0.00769209
0.00777017
0.0079639
0.00825209
0.00851352
0.00868903
0.00876638
0.00874539
0.00862241
0.0083856
0.00801211
0.00746692
0.00670655
0.0056419
0.00378009
0.00047717
0.00822684
0.00803527
0.00783997
0.0076652
0.00755821
0.00761042
0.00793523
0.00826473
0.00848088
0.00857779
0.00856511
0.00844404
0.00820373
0.00782112
0.00726153
0.00651499
0.00568192
0.00393429
0.000498755
0.00870974
0.00859809
0.00845145
0.00825541
0.00798701
0.00764135
0.00771166
0.00810776
0.00835921
0.00847037
0.00846236
0.00834066
0.00809473
0.00770037
0.00712529
0.00651834
0.00622577
0.00462734
0.000507618
)
;

boundaryField
{
    leftWall
    {
        type            nutkWallFunction;
        blending        stepwise;
        Cmu             0.09;
        kappa           0.41;
        E               9.8;
        value           nonuniform List<scalar> 
50
(
9.38478e-06
1.17054e-05
1.26902e-05
1.31465e-05
1.32651e-05
1.31323e-05
1.28192e-05
1.24022e-05
1.16916e-05
1.17955e-05
1.33776e-05
1.18516e-05
1.39785e-05
1.59448e-05
1.71717e-05
1.79151e-05
1.83926e-05
1.87184e-05
1.89387e-05
1.90682e-05
1.91109e-05
1.90715e-05
1.89584e-05
1.87831e-05
1.8559e-05
1.82999e-05
1.80201e-05
1.77336e-05
1.74541e-05
1.7194e-05
1.6964e-05
1.67723e-05
1.66248e-05
1.65247e-05
1.64727e-05
1.64681e-05
1.6509e-05
1.65936e-05
1.67218e-05
1.68974e-05
1.71293e-05
1.7434e-05
1.7838e-05
1.83807e-05
1.91219e-05
2.01545e-05
2.16189e-05
2.36079e-05
2.60599e-05
2.83689e-05
)
;
    }
    rightWall
    {
        type            nutkWallFunction;
        blending        stepwise;
        Cmu             0.09;
        kappa           0.41;
        E               9.8;
        value           nonuniform List<scalar> 
50
(
2.33306e-05
2.6522e-05
2.90858e-05
3.13106e-05
3.21359e-05
3.19262e-05
3.13053e-05
3.05989e-05
2.98988e-05
2.90936e-05
2.95651e-05
3.25308e-05
3.39669e-05
3.5211e-05
3.61547e-05
3.70035e-05
3.75034e-05
3.76849e-05
3.77337e-05
3.77422e-05
3.77412e-05
3.76221e-05
3.78096e-05
3.9466e-05
4.10409e-05
4.40634e-05
4.68679e-05
4.44531e-05
4.26391e-05
4.24492e-05
4.19537e-05
4.09726e-05
4.00978e-05
3.96917e-05
3.98101e-05
4.10712e-05
4.66425e-05
5.86456e-05
6.5104e-05
6.2256e-05
5.16372e-05
4.7027e-05
4.53859e-05
4.46521e-05
4.43338e-05
4.46495e-05
4.83705e-05
5.33428e-05
5.61954e-05
5.88674e-05
)
;
    }
    lowerWall
    {
        type            nutkWallFunction;
        blending        stepwise;
        Cmu             0.09;
        kappa           0.41;
        E               9.8;
        value           nonuniform List<scalar> 
62
(
4.44998e-06
5.44223e-06
6.25144e-06
6.80298e-06
7.21311e-06
7.55121e-06
7.85448e-06
8.13604e-06
8.39796e-06
8.63693e-06
8.84736e-06
9.02381e-06
9.16481e-06
9.26236e-06
9.2978e-06
9.26368e-06
9.16238e-06
9.01747e-06
8.85868e-06
8.66117e-06
8.36346e-06
7.64028e-06
5.9293e-06
5.9293e-06
1.6384e-05
1.84259e-05
2.02011e-05
2.20604e-05
2.44636e-05
2.78913e-05
3.24252e-05
3.70479e-05
3.63527e-05
3.92199e-05
4.23616e-05
1.49335e-05
4.46351e-05
4.79353e-05
4.94775e-05
4.97938e-05
4.93639e-05
4.85334e-05
4.76506e-05
1.49335e-05
1.59944e-05
1.79576e-05
1.91114e-05
1.96431e-05
1.97188e-05
1.96598e-05
2.01123e-05
2.08385e-05
2.16158e-05
2.22038e-05
2.2429e-05
2.20999e-05
2.10597e-05
1.96902e-05
1.85281e-05
1.72417e-05
1.44407e-05
1.05052e-05
)
;
    }
    atmosphere
    {
        type            calculated;
        value           nonuniform List<scalar> 
46
(
0.000250384
0.00200085
0.00391927
0.00548639
0.00663563
0.00743176
0.00797003
0.0083345
0.00858479
0.00876256
0.00889546
0.009
0.009
0.009
0.009
0.009
0.009
0.009
0.009
0.009
0.009
0.009
0.009
0.009
0.009
0.009
0.009
0.009
0.009
0.009
0.009
0.009
0.009
0.00771166
0.00810776
0.00835921
0.00847037
0.00846236
0.00834066
0.00809473
0.00770037
0.00712529
0.009
0.009
0.009
0.000507618
)
;
    }
    defaultFaces
    {
        type            empty;
    }
}


// ************************************************************************* //
