/*--------------------------------*- C++ -*----------------------------------*\
| =========                 |                                                 |
| \\      /  F ield         | OpenFOAM: The Open Source CFD Toolbox           |
|  \\    /   O peration     | Version:  v2012                                 |
|   \\  /    A nd           | Website:  www.openfoam.com                      |
|    \\/     M anipulation  |                                                 |
\*---------------------------------------------------------------------------*/
FoamFile
{
    version     2.0;
    format      ascii;
    class       volScalarField;
    location    "0.8";
    object      p;
}
// * * * * * * * * * * * * * * * * * * * * * * * * * * * * * * * * * * * * * //

dimensions      [1 -1 -2 0 0 0 0];


internalField   nonuniform List<scalar> 
2268
(
672.817
668.644
666.655
667.431
670.865
676.284
683.263
691.513
700.839
711.082
722.101
733.766
745.986
758.654
771.586
784.502
797.123
808.789
818.412
825.386
829.293
828.59
823.572
614.387
609.533
607.459
608.523
612.226
617.797
624.824
633.045
642.289
652.413
663.293
674.821
686.895
699.42
712.216
725.035
737.562
749.35
759.683
766.731
769.728
767.648
761.917
553.816
549.255
547.848
549.418
553.423
559.17
566.287
574.528
583.732
593.766
604.516
615.884
627.785
640.126
652.752
665.417
677.776
689.386
699.603
706.764
709.367
706.286
699.418
491.587
487.876
487.527
489.716
494.085
500.065
507.329
515.652
524.883
534.895
545.577
556.841
568.619
580.832
593.346
605.918
618.189
629.692
639.676
646.687
649.199
645.158
636.295
428.348
425.671
426.461
429.319
434.121
440.402
447.881
456.359
465.694
475.759
486.441
497.656
509.366
521.519
534
546.567
558.87
570.458
580.524
587.696
590.441
585.416
572.872
364.313
362.795
364.71
368.252
373.544
380.193
387.961
396.669
406.184
416.375
427.114
438.326
450.01
462.16
474.679
487.321
499.764
511.614
522.021
529.683
533.359
527.786
508.798
299.499
299.252
302.233
306.479
312.33
319.441
327.589
336.61
346.38
356.766
367.616
378.853
390.542
402.734
415.352
428.139
440.809
453.055
463.996
472.468
477.518
470.565
441.593
234.163
234.774
238.567
243.569
250.167
257.966
266.691
276.169
286.302
296.964
307.971
319.246
330.944
343.197
355.964
368.968
381.94
394.66
406.281
415.801
421.424
409.902
368.743
1160.49
1090.26
914.267
734.051
673.246
681.995
691.393
682.752
670.904
680.057
727.056
805.436
874.602
905.041
926.852
952.268
958.53
932.602
918.876
1142.38
1028.83
809.454
613.178
578.484
617.068
635.673
623.554
603.827
603.596
639.419
710.398
782.429
819.01
845.477
874.58
884.987
865.877
861.15
1136.04
916.448
643.201
475.536
486.36
555.36
585.366
569.862
539.522
526.378
549.119
613.055
690.059
730.21
759.775
794.708
815.729
809.634
803.763
1072.68
748.516
455.382
344.879
396.138
500.411
544.737
521.285
474.771
449.052
461.066
519.947
606.513
647.213
675.835
715.973
749.071
758.384
749.223
940.556
564.291
320.637
267.416
325.162
454.26
510.575
472.002
413.254
389.203
393.94
437.997
531.166
568.025
592.104
637.009
680.127
703.94
695.127
774.163
416.774
261.35
238.477
287.591
420.852
472.041
420.003
376.173
366.809
371.845
393.692
470.151
489.035
503.858
554.63
607.172
643.674
638.83
614.01
334.193
235.581
224.81
274.045
396.067
433.802
391.133
365.483
360.737
366.705
383.305
431.271
412.963
410.889
465.661
526.36
576.839
578.813
480.988
299.486
225.308
215.129
262.051
359.682
386.387
373.839
360.773
354.411
358.854
377.207
399.943
361.666
339.902
376.342
434.505
498.465
514.698
129.704
131.014
135.608
141.834
150.117
159.725
170.01
180.702
191.765
203.116
214.5
225.824
237.503
249.857
262.961
276.428
289.964
303.593
316.884
329.038
335.391
318.84
268.608
26.5088
26.8638
29.1277
32.6504
38.1153
45.2277
53.2606
61.8069
70.7458
79.9129
89.1311
98.8213
110.101
122.764
136.489
150.485
164.344
179.621
197.053
216.64
233.98
238.051
228.924
0.0719986
0.0140786
0.146191
0.280522
0.640915
1.53513
3.00951
5.03305
7.53819
10.363
13.4663
17.2823
22.5335
29.1537
36.1248
42.8887
49.8165
62.6634
78.9783
101.521
126.643
145.252
170.281
-0.313677
-0.344769
-0.334113
-0.338702
-0.345909
-0.362106
-0.397431
-0.438248
-0.458722
-0.455209
-0.44251
-0.437549
-0.442129
-0.428902
-0.388604
-0.321202
-0.00520102
4.17375
9.24366
17.9108
31.7455
48.5181
91.3715
-0.4769
-0.483205
-0.48349
-0.497468
-0.523229
-0.554234
-0.577647
-0.588807
-0.588457
-0.579519
-0.565294
-0.547775
-0.52681
-0.501031
-0.473282
-0.441731
-0.400845
-0.372392
-0.237286
-0.00136304
0.677544
3.6265
17.6669
-0.627166
-0.627418
-0.627046
-0.635309
-0.651568
-0.671442
-0.687451
-0.696524
-0.698329
-0.69338
-0.683011
-0.668188
-0.649002
-0.623792
-0.587514
-0.538419
-0.483785
-0.434817
-0.34601
-0.242673
-0.0881813
0.376085
2.26902
-0.781841
-0.781942
-0.782266
-0.786375
-0.794129
-0.803664
-0.812308
-0.818031
-0.819224
-0.815048
-0.805752
-0.7917
-0.772477
-0.746629
-0.711843
-0.66629
-0.61159
-0.547953
-0.457611
-0.369498
-0.329717
-0.286363
-0.012906
-0.934027
-0.933543
-0.933756
-0.935941
-0.939986
-0.944888
-0.949166
-0.951431
-0.950502
-0.945582
-0.9364
-0.922841
-0.904495
-0.880641
-0.850501
-0.813386
-0.769951
-0.720713
-0.663725
-0.62384
-0.646388
-0.71581
-0.709165
-1.08371
-1.08247
-1.08204
-1.08294
-1.08495
-1.08738
-1.08925
-1.0896
-1.0876
-1.08264
-1.07428
-1.06228
-1.04644
-1.02666
-1.00306
-0.9761
-0.947489
-0.920517
-0.900532
-0.904727
-0.959947
-1.06317
-1.14856
-1.23238
-1.23078
-1.22987
-1.22984
-1.23046
-1.23125
-1.23164
-1.23103
-1.22884
-1.22457
-1.21778
-1.20821
-1.19591
-1.18129
-1.16516
-1.14882
-1.13468
-1.12712
-1.13322
-1.16447
-1.23455
-1.3464
-1.47185
-1.38023
-1.37863
-1.37747
-1.37687
-1.37661
-1.37642
-1.37599
-1.37502
-1.37316
-1.37001
-1.3652
-1.35851
-1.35017
-1.34095
-1.33216
-1.32563
-1.32398
-1.33155
-1.355
-1.40277
-1.48262
-1.60004
-1.7325
-1.52732
-1.5259
-1.52468
-1.52376
-1.52302
-1.52231
-1.52157
-1.52067
-1.51947
-1.51768
-1.51501
-1.51133
-1.50696
-1.50284
-1.50059
-1.50226
-1.5105
-1.52918
-1.56408
-1.62206
-1.70856
-1.82829
-1.97407
-1.67379
-1.67261
-1.67145
-1.6704
-1.66943
-1.66854
-1.66779
-1.66723
-1.66685
-1.6665
-1.66597
-1.66518
-1.66448
-1.6649
-1.66812
-1.67622
-1.69172
-1.71797
-1.75973
-1.82275
-1.9117
-2.03013
-2.17708
-1.81969
-1.81877
-1.81773
-1.81667
-1.81567
-1.81481
-1.81423
-1.81414
-1.81463
-1.81567
-1.81712
-1.81893
-1.82145
-1.82566
-1.83321
-1.8461
-1.86658
-1.89741
-1.9424
-2.00616
-2.09273
-2.20498
-2.34254
-1.96505
-1.96434
-1.96343
-1.96248
-1.96158
-1.96088
-1.96059
-1.96098
-1.96228
-1.96456
-1.96775
-1.9718
-1.977
-1.98422
-1.99498
-2.01116
-2.0347
-2.06782
-2.11341
-2.17501
-2.25586
-2.35829
-2.48241
-2.10983
-2.10928
-2.10852
-2.10774
-2.10705
-2.10659
-2.10663
-2.10749
-2.10947
-2.11277
-2.11737
-2.12326
-2.13059
-2.1401
-2.1531
-2.17128
-2.19636
-2.23007
-2.27456
-2.33241
-2.4061
-2.49736
-2.60665
-2.25403
-2.25358
-2.25298
-2.25242
-2.252
-2.25186
-2.25224
-2.2535
-2.25602
-2.26005
-2.26572
-2.27298
-2.28193
-2.29308
-2.30751
-2.32669
-2.35213
-2.38524
-2.42755
-2.48091
-2.54712
-2.62742
-2.72222
-2.39763
-2.39727
-2.39682
-2.39652
-2.39642
-2.39662
-2.39735
-2.39895
-2.40184
-2.40635
-2.41268
-2.42087
-2.43092
-2.44315
-2.45837
-2.47779
-2.50274
-2.53439
-2.57388
-2.62248
-2.68142
-2.75151
-2.83299
-2.54064
-2.54034
-2.54005
-2.54001
-2.54026
-2.54083
-2.5419
-2.54379
-2.54691
-2.55166
-2.55832
-2.56699
-2.57766
-2.59047
-2.60597
-2.6251
-2.64898
-2.67864
-2.71496
-2.7588
-2.81097
-2.87198
-2.94199
-2.68304
-2.68279
-2.68265
-2.68288
-2.68346
-2.6844
-2.68581
-2.68795
-2.69122
-2.69604
-2.70274
-2.7115
-2.72235
-2.73534
-2.75074
-2.76923
-2.79171
-2.81908
-2.85207
-2.89133
-2.93738
-2.99051
-3.0509
-2.82481
-2.82459
-2.82459
-2.82506
-2.82596
-2.82724
-2.82897
-2.83136
-2.83473
-2.8395
-2.84604
-2.8546
-2.86528
-2.87807
-2.89309
-2.91075
-2.9317
-2.9567
-2.98639
-3.02133
-3.06186
-3.10818
-3.16048
-2.9659
-2.9657
-2.96581
-2.96649
-2.96767
-2.96926
-2.9713
-2.97392
-2.97738
-2.98205
-2.98831
-2.99648
-3.0067
-3.019
-3.0334
-3.05011
-3.06954
-3.09227
-3.11886
-3.1498
-3.1854
-3.22579
-3.27123
-3.10627
-3.10607
-3.10627
-3.10711
-3.10852
-3.11039
-3.1127
-3.11553
-3.11909
-3.12366
-3.12961
-3.13727
-3.14686
-3.15843
-3.17201
-3.18766
-3.20562
-3.22627
-3.25006
-3.27744
-3.30867
-3.34393
-3.3835
-3.2459
-3.24569
-3.24594
-3.2469
-3.24848
-3.25056
-3.2531
-3.25613
-3.25979
-3.2643
-3.26996
-3.2771
-3.28596
-3.29666
-3.30925
-3.32375
-3.34025
-3.35901
-3.38034
-3.40459
-3.43204
-3.46286
-3.49741
-3.38476
-3.38454
-3.38482
-3.38585
-3.38753
-3.38976
-3.39248
-3.39568
-3.39944
-3.40391
-3.40934
-3.416
-3.42415
-3.43394
-3.44546
-3.45872
-3.47379
-3.49078
-3.50991
-3.53145
-3.55564
-3.58266
-3.6129
-3.52285
-3.52262
-3.52291
-3.52397
-3.5257
-3.52802
-3.53085
-3.53417
-3.53801
-3.54247
-3.54772
-3.55399
-3.5615
-3.57042
-3.58087
-3.5929
-3.60654
-3.62187
-3.63902
-3.65819
-3.67958
-3.70334
-3.72986
-3.66021
-3.65996
-3.66024
-3.6613
-3.66304
-3.66538
-3.66825
-3.67163
-3.67552
-3.67995
-3.68507
-3.69102
-3.69799
-3.70615
-3.71562
-3.72647
-3.73875
-3.75252
-3.76788
-3.78496
-3.80392
-3.82488
-3.8482
-3.79686
-3.7966
-3.79686
-3.79788
-3.79959
-3.8019
-3.80477
-3.80814
-3.81201
-3.81639
-3.82137
-3.82705
-3.83358
-3.84108
-3.84969
-3.85948
-3.87052
-3.88287
-3.8966
-3.91184
-3.92867
-3.94721
-3.96776
-3.93284
-3.93258
-3.93282
-3.93379
-3.93543
-3.93767
-3.94046
-3.94376
-3.94756
-3.95185
-3.95667
-3.9621
-3.96823
-3.97518
-3.98304
-3.9919
-4.00183
-4.0129
-4.02518
-4.03877
-4.05375
-4.07018
-4.08833
-4.06821
-4.06794
-4.06815
-4.06906
-4.07062
-4.07276
-4.07543
-4.07861
-4.08227
-4.08641
-4.09104
-4.0962
-4.10196
-4.1084
-4.11561
-4.12365
-4.1326
-4.14253
-4.15352
-4.16566
-4.179
-4.19359
-4.20963
-4.20301
-4.20274
-4.20293
-4.20377
-4.20523
-4.20724
-4.20976
-4.21278
-4.21625
-4.22018
-4.22457
-4.22943
-4.23482
-4.24078
-4.24739
-4.25469
-4.26277
-4.27169
-4.28153
-4.29236
-4.30425
-4.31721
-4.3314
-4.3373
-4.33703
-4.3372
-4.33797
-4.33933
-4.34119
-4.34354
-4.34635
-4.3496
-4.35328
-4.35737
-4.3619
-4.36688
-4.37237
-4.3784
-4.38503
-4.39231
-4.40031
-4.40911
-4.41878
-4.42936
-4.44085
-4.45339
-4.47112
-4.47086
-4.47101
-4.47172
-4.47296
-4.47468
-4.47684
-4.47942
-4.48241
-4.48579
-4.48955
-4.4937
-4.49826
-4.50326
-4.50873
-4.5147
-4.52124
-4.5284
-4.53624
-4.54483
-4.55421
-4.56438
-4.57544
-4.60453
-4.60429
-4.60442
-4.60507
-4.6062
-4.60775
-4.60971
-4.61205
-4.61475
-4.6178
-4.6212
-4.62495
-4.62906
-4.63355
-4.63845
-4.64379
-4.64962
-4.65597
-4.66291
-4.6705
-4.67878
-4.68773
-4.69745
-4.73758
-4.73736
-4.73749
-4.73808
-4.73909
-4.74048
-4.74223
-4.74431
-4.74671
-4.74941
-4.75241
-4.75573
-4.75937
-4.76335
-4.76768
-4.77238
-4.77751
-4.78308
-4.78917
-4.79582
-4.80306
-4.81088
-4.81935
-4.87032
-4.87015
-4.87028
-4.87081
-4.8717
-4.87293
-4.87445
-4.87626
-4.87832
-4.88065
-4.88325
-4.88612
-4.88927
-4.89272
-4.89648
-4.90056
-4.905
-4.90983
-4.91509
-4.92084
-4.9271
-4.93385
-4.94116
-5.0028
-5.0027
-5.00286
-5.00333
-5.0041
-5.00514
-5.00643
-5.00794
-5.00966
-5.01159
-5.01376
-5.01617
-5.01883
-5.02175
-5.02494
-5.0284
-5.03217
-5.03627
-5.04074
-5.04563
-5.05094
-5.05667
-5.06287
-5.13508
-5.13508
-5.13528
-5.13568
-5.13631
-5.13716
-5.1382
-5.1394
-5.14075
-5.14227
-5.14398
-5.14593
-5.1481
-5.1505
-5.15313
-5.156
-5.15911
-5.1625
-5.1662
-5.17025
-5.17465
-5.1794
-5.18454
-5.2672
-5.26735
-5.26759
-5.26789
-5.26838
-5.26903
-5.2698
-5.27067
-5.27163
-5.2727
-5.27394
-5.27543
-5.27713
-5.27902
-5.28111
-5.28339
-5.28587
-5.28858
-5.29154
-5.29477
-5.29829
-5.30209
-5.3062
-5.39923
-5.39955
-5.3998
-5.4
-5.40033
-5.40077
-5.40128
-5.40181
-5.40234
-5.40287
-5.40357
-5.40461
-5.40587
-5.4073
-5.40888
-5.41061
-5.41251
-5.41457
-5.41683
-5.4193
-5.42198
-5.42486
-5.42795
-5.53117
-5.53163
-5.53189
-5.53202
-5.53222
-5.53247
-5.53271
-5.53289
-5.53294
-5.53273
-5.53267
-5.53344
-5.53435
-5.53536
-5.53648
-5.53771
-5.53906
-5.54054
-5.54214
-5.54389
-5.54577
-5.54776
-5.54989
-5.663
-5.66342
-5.66366
-5.66377
-5.66387
-5.66393
-5.66394
-5.66386
-5.66362
-5.66299
-5.66245
-5.66311
-5.66362
-5.6641
-5.66464
-5.66524
-5.66591
-5.66665
-5.66747
-5.66836
-5.6693
-5.67028
-5.67126
227.805
193.926
146.9
95.0248
233.385
256.951
303.422
348.824
207.591
246.814
304.013
349.587
132.033
151.439
160.074
153.334
58.7577
97.4963
108.491
80.5758
11.3882
37.4582
67.7466
63.8773
1.65085
7.20132
22.3435
38.0942
-0.579005
-0.21645
3.0739
14.1172
-1.26759
-1.70723
-2.49192
0.901636
-1.52863
-1.7319
-2.80772
-3.64709
-1.76269
-1.78478
-2.00566
-2.84786
-2.05772
-2.06216
-2.05653
-2.32412
-2.29302
-2.35182
-2.37821
-2.41549
-2.45973
-2.53333
-2.5999
-2.64481
-2.59118
-2.66488
-2.74163
-2.81754
-2.7062
-2.77702
-2.85091
-2.92773
-2.81085
-2.87685
-2.94614
-3.01553
-2.91024
-2.9696
-3.03285
-3.09517
-3.00918
-3.06195
-3.11876
-3.17441
-3.10952
-3.1563
-3.20704
-3.25663
-3.2117
-3.25311
-3.29833
-3.34256
-3.31604
-3.35264
-3.39291
-3.43242
-3.42276
-3.4551
-3.49093
-3.52625
-3.53183
-3.56037
-3.59222
-3.6238
-3.64305
-3.66819
-3.69645
-3.72464
-3.75624
-3.77831
-3.80331
-3.82841
-3.87125
-3.89057
-3.91257
-3.93478
-3.9879
-4.00475
-4.024
-4.04352
-4.10594
-4.12058
-4.13733
-4.15435
-4.22504
-4.23775
-4.25226
-4.26698
-4.34489
-4.35592
-4.36845
-4.38113
-4.4652
-4.47479
-4.48562
-4.4965
-4.58579
-4.59413
-4.6035
-4.61285
-4.70649
-4.71376
-4.72188
-4.72992
-4.82722
-4.83354
-4.84058
-4.84751
-4.94794
-4.95339
-4.95947
-4.96542
-5.06863
-5.07327
-5.07846
-5.08353
-5.1893
-5.19317
-5.19751
-5.20175
-5.31
-5.31309
-5.31658
-5.32001
-5.43076
-5.43306
-5.43568
-5.43831
-5.5518
-5.55333
-5.55505
-5.55677
-5.6721
-5.67272
-5.67341
-5.67409
316.226
279.022
217.46
194.807
218.916
277.002
299.312
324.696
348.7
345.375
348.551
354.219
348.578
323.477
300.236
298.956
322.483
373.769
412.73
385.733
270.929
176.214
132.497
101.443
100.617
139.815
216.705
309.077
335.1
337.532
324.023
298.066
285.009
273.719
268.104
270.007
278.353
295.683
341.564
185.496
72.9975
56.1792
42.2118
41.2882
56.0519
103
246.935
332.181
322.614
290.79
264.88
255.472
255.535
254.918
252.212
245.675
227.175
115.501
39.9279
34.0213
34.4176
35.7912
37.1374
39.7834
51.4341
188.306
313.562
288.152
247.819
239.178
231.335
233.731
236.464
234.291
221.74
200.318
32.7149
30.2521
34.6869
35.13
35.1787
35.6784
36.6096
44.616
128.933
244.181
223.308
204.201
216.7
207.262
198.424
197.384
201.038
193.697
179.299
38.7766
35.2439
34.988
34.9371
35.0814
35.3736
35.489
39.4109
78.7305
149.539
164.409
164.456
178.687
168.273
139.26
123.916
139.631
158.236
154.48
36.5826
35.1326
34.8101
34.7934
34.9859
35.2594
34.6924
33.8839
50.1826
96.7136
124.253
126.983
116.355
108.787
71.1656
47.1586
66.27
109.861
124.43
30.2811
34.7314
34.7553
34.7254
34.969
35.007
33.6713
32.9401
43.7895
69.0825
94.9527
92.1056
56.0879
46.6707
27.0593
11.9091
24.1918
56.0149
89.9598
15.6901
32.9483
35.0692
35.3946
35.2186
34.9215
33.5476
33.4418
39.0065
50.385
63.0782
56.1844
16.2915
8.85781
5.76136
2.0682
5.23435
16.1703
55.8168
1.78516
22.9473
36.0145
37.1237
36.2647
34.8406
33.6213
33.2303
32.9272
28.6596
31.0567
18.9152
0.230892
-4.469
-1.56104
-0.718
0.182079
3.15273
25.2266
-4.77898
5.97552
28.7862
36.4493
36.3187
35.0345
33.5414
31.9719
22.8443
8.07537
5.13197
-0.48838
-2.59169
-4.82865
-2.71565
-1.57251
-1.36346
-0.981716
4.46741
-3.04027
-4.91628
5.32378
22.4258
34.672
34.4186
31.3366
18.1786
0.287237
1.79741
-2.05666
-1.69891
-2.17776
-3.09078
-2.47778
-1.8838
-2.0513
-2.77364
-1.35969
-2.74741
-3.03519
-4.04856
-5.07784
0.325867
1.06467
-1.74964
-6.53411
-4.21215
-2.57962
-2.20146
-2.08056
-2.22464
-2.66625
-2.36804
-2.06998
-2.29678
-2.76021
-2.57807
-2.68166
-3.02821
-4.11836
-3.65972
-3.60948
-4.43241
-4.59332
-4.07141
-2.94507
-2.49485
-2.38466
-2.36
-2.50087
-2.58142
-2.42106
-2.30293
-2.44014
-2.67501
-2.81101
-2.93421
-3.15158
-3.2131
-3.50233
-4.45072
-4.31289
-4.01817
-3.23803
-2.74979
-2.64372
-2.56818
-2.57999
-2.66884
-2.67518
-2.59379
-2.55789
-2.62752
-2.74973
-3.02185
-3.05568
-3.23921
-3.35428
-3.41859
-3.49036
-3.38715
-3.24054
-3.03716
-2.8994
-2.79277
-2.72614
-2.74323
-2.80329
-2.81641
-2.77503
-2.74744
-2.76282
-2.79602
-3.03623
-3.12551
-3.27755
-3.40583
-3.48807
-3.53899
-3.47331
-3.33946
-3.17385
-3.03389
-2.92703
-2.87453
-2.88906
-2.93425
-2.94941
-2.9148
-2.86956
-2.81819
-2.79039
-2.82849
-3.18818
-3.30568
-3.40614
-3.47831
-3.51595
-3.47493
-3.37697
-3.25326
-3.14182
-3.06006
-3.02167
-3.0328
-3.06221
-3.06699
-3.02926
-2.9648
-2.86716
-2.82562
-2.71037
-3.25428
-3.34694
-3.42408
-3.47889
-3.50285
-3.47675
-3.41164
-3.3282
-3.25167
-3.19576
-3.16925
-3.17345
-3.18878
-3.18425
-3.14411
-3.07307
-2.95366
-2.9541
-2.58907
-3.32603
-3.40247
-3.46551
-3.50934
-3.52749
-3.51254
-3.47111
-3.41691
-3.366
-3.32881
-3.31057
-3.31122
-3.31882
-3.31222
-3.27834
-3.21301
-3.06898
-3.13757
-2.88738
-3.40351
-3.46858
-3.52244
-3.56049
-3.57787
-3.57182
-3.54707
-3.51294
-3.47993
-3.45573
-3.44428
-3.44564
-3.45321
-3.45388
-3.4381
-3.39617
-3.25181
-3.36272
-3.42129
-3.48643
-3.54305
-3.59049
-3.62519
-3.64345
-3.64422
-3.63115
-3.61089
-3.59067
-3.57617
-3.571
-3.5763
-3.58945
-3.60389
-3.61395
-3.61135
-3.55625
-3.65527
-3.69168
-3.57438
-3.6245
-3.6672
-3.69971
-3.71903
-3.72472
-3.71973
-3.70905
-3.69796
-3.69088
-3.69129
-3.70148
-3.7217
-3.75021
-3.78569
-3.82885
-3.92106
-3.90529
-3.60627
-3.66684
-3.71173
-3.75068
-3.78147
-3.8015
-3.81053
-3.81099
-3.80684
-3.80216
-3.80044
-3.80495
-3.81857
-3.84302
-3.87897
-3.92789
-3.99531
-4.13464
-4.09896
-3.64023
-3.76321
-3.80367
-3.83942
-3.86861
-3.88888
-3.89995
-3.90385
-3.9039
-3.90341
-3.90512
-3.91167
-3.92578
-3.94933
-3.983
-4.02765
-4.08342
-4.17113
-4.18143
-3.92651
-3.86292
-3.89948
-3.93236
-3.95992
-3.97997
-3.99208
-3.9979
-4.00029
-4.00207
-4.00532
-4.01185
-4.02364
-4.04199
-4.06695
-4.09779
-4.13016
-4.15881
-4.17977
-4.09439
-3.96555
-3.99853
-4.02871
-4.0546
-4.07411
-4.08657
-4.09326
-4.0966
-4.09904
-4.1022
-4.10712
-4.11488
-4.12623
-4.14111
-4.15856
-4.17417
-4.17533
-4.18752
-4.15058
-4.07075
-4.10037
-4.12791
-4.15206
-4.17079
-4.18325
-4.19021
-4.19365
-4.19568
-4.1976
-4.19998
-4.20323
-4.2078
-4.21389
-4.22149
-4.22868
-4.22407
-4.22617
-4.22819
-4.17825
-4.20463
-4.22953
-4.25181
-4.26958
-4.28182
-4.28884
-4.29206
-4.2932
-4.29338
-4.29294
-4.292
-4.29083
-4.28982
-4.28975
-4.2905
-4.28361
-4.2729
-4.40486
-4.28778
-4.31104
-4.33326
-4.3535
-4.37008
-4.38192
-4.38893
-4.39195
-4.39226
-4.39077
-4.3878
-4.38341
-4.37771
-4.37096
-4.36358
-4.35555
-4.34111
-4.31754
-4.32393
-4.3991
-4.41939
-4.43891
-4.45693
-4.47203
-4.48321
-4.49012
-4.49309
-4.49289
-4.49022
-4.48542
-4.4786
-4.46972
-4.45855
-4.44479
-4.42713
-4.40015
-4.35712
-4.28039
-4.51194
-4.52948
-4.54636
-4.56202
-4.57537
-4.58557
-4.59217
-4.59513
-4.59479
-4.5916
-4.58592
-4.57794
-4.56748
-4.55389
-4.53607
-4.51153
-4.47393
-4.41548
-4.25535
-4.62607
-4.64111
-4.6555
-4.66881
-4.68021
-4.68911
-4.69507
-4.69791
-4.69764
-4.69449
-4.68886
-4.68102
-4.67078
-4.65729
-4.63899
-4.61337
-4.57668
-4.53223
-4.31939
-4.74124
-4.75405
-4.7662
-4.77729
-4.78672
-4.79409
-4.79912
-4.80158
-4.80135
-4.7985
-4.79355
-4.78689
-4.77839
-4.76724
-4.75184
-4.73018
-4.70213
-4.67922
-4.49323
-4.85719
-4.86807
-4.87826
-4.88739
-4.89499
-4.90081
-4.90472
-4.90658
-4.90618
-4.9036
-4.89952
-4.89457
-4.88872
-4.8813
-4.87076
-4.85654
-4.84003
-4.83604
-4.68203
-4.97369
-4.98288
-4.99142
-4.9989
-5.00495
-5.00941
-5.01221
-5.01336
-5.01278
-5.01053
-5.00751
-5.00429
-5.00107
-4.99754
-4.99259
-4.9879
-4.98778
-4.99495
-4.84208
-5.09055
-5.09826
-5.10536
-5.11152
-5.11638
-5.11978
-5.12162
-5.12204
-5.12137
-5.11967
-5.11755
-5.11582
-5.11496
-5.11477
-5.11572
-5.12339
-5.13899
-5.15429
-5.00094
-5.20761
-5.21397
-5.21982
-5.22489
-5.22889
-5.23166
-5.23274
-5.23237
-5.2314
-5.23015
-5.2286
-5.22788
-5.22889
-5.23229
-5.24034
-5.2583
-5.28651
-5.31292
-5.19583
-5.32477
-5.32987
-5.33455
-5.33865
-5.34206
-5.34469
-5.34535
-5.34408
-5.34249
-5.34113
-5.33998
-5.33954
-5.34109
-5.34688
-5.36024
-5.38559
-5.42321
-5.45138
-5.35965
-5.44199
-5.44587
-5.44939
-5.45255
-5.45563
-5.45902
-5.46028
-5.45784
-5.45542
-5.45353
-5.45197
-5.45089
-5.45128
-5.455
-5.46566
-5.49695
-5.54951
-5.57487
-5.52281
-5.55917
-5.56172
-5.56402
-5.5663
-5.56974
-5.57639
-5.58034
-5.57581
-5.57212
-5.56944
-5.56676
-5.56383
-5.56068
-5.55667
-5.55347
-5.58798
-5.69225
-5.81662
-6.07184
-5.67505
-5.676
-5.67684
-5.6781
-5.68245
-5.69829
-5.69781
-5.69094
-5.68697
-5.68431
-5.68136
-5.67751
-5.6719
-5.66033
-5.63617
-5.65814
-5.831
-6.28729
-7.41259
)
;

boundaryField
{
    leftWall
    {
        type            calculated;
        value           nonuniform List<scalar> 
50
(
672.817
614.387
553.816
491.587
428.348
364.313
299.499
234.163
129.704
26.5088
0.0719986
-0.313677
-0.4769
-0.627166
-0.781841
-0.934027
-1.08371
-1.23238
-1.38023
-1.52732
-1.67379
-1.81969
-1.96505
-2.10983
-2.25403
-2.39763
-2.54064
-2.68304
-2.82481
-2.9659
-3.10627
-3.2459
-3.38476
-3.52285
-3.66021
-3.79686
-3.93284
-4.06821
-4.20301
-4.3373
-4.47112
-4.60453
-4.73758
-4.87032
-5.0028
-5.13508
-5.2672
-5.39923
-5.53117
-5.663
)
;
    }
    rightWall
    {
        type            calculated;
        value           nonuniform List<scalar> 
50
(
918.876
861.15
803.763
749.223
695.127
638.83
578.813
514.698
412.73
295.683
227.175
200.318
179.299
154.48
124.43
89.9598
55.8168
25.2266
4.46741
-1.35969
-2.57807
-2.81101
-3.02185
-3.03623
-2.82849
-2.71037
-2.58907
-2.88738
-3.42129
-3.69168
-3.60627
-3.64023
-3.92651
-4.09439
-4.15058
-4.22819
-4.40486
-4.32393
-4.28039
-4.25535
-4.31939
-4.49323
-4.68203
-4.84208
-5.00094
-5.19583
-5.35965
-5.52281
-6.07184
-7.41259
)
;
    }
    lowerWall
    {
        type            calculated;
        value           nonuniform List<scalar> 
62
(
702.246
698.073
696.085
696.86
700.295
705.713
712.692
720.943
730.268
740.512
751.531
763.196
775.416
788.083
801.015
813.932
826.552
837.993
846.574
853.488
857.396
857.431
852.992
823.572
761.917
699.418
636.295
572.872
508.798
441.593
368.743
290.144
252.783
201.697
154.007
1160.49
1142.38
1136.04
1072.68
940.556
774.163
614.01
480.988
1172.06
1116.35
943.616
763.342
702.442
711.231
720.748
711.993
699.79
708.94
756.002
834.475
903.092
932.737
954.306
979.663
986.499
960.617
946.698
)
;
    }
    atmosphere
    {
        type            calculated;
        value           nonuniform List<scalar> 
46
(
-5.72904
-5.72904
-5.72904
-5.72904
-5.72904
-5.72904
-5.72904
-5.72904
-5.72904
-5.72904
-5.72904
-5.72905
-5.72909
-5.72916
-5.72927
-5.72943
-5.72963
-5.72988
-5.73018
-5.73051
-5.73085
-5.73118
-5.73145
-5.73158
-5.73166
-5.73174
-5.73182
-5.73191
-5.73169
-5.73116
-5.73046
-5.72974
-5.72916
-5.72904
-5.72904
-5.72904
-5.72904
-5.72904
-5.72904
-5.72906
-5.72905
-5.72904
-5.73596
-5.77645
-5.86555
-8.81725
)
;
    }
    defaultFaces
    {
        type            empty;
    }
}


// ************************************************************************* //
