/*--------------------------------*- C++ -*----------------------------------*\
| =========                 |                                                 |
| \\      /  F ield         | OpenFOAM: The Open Source CFD Toolbox           |
|  \\    /   O peration     | Version:  v2012                                 |
|   \\  /    A nd           | Website:  www.openfoam.com                      |
|    \\/     M anipulation  |                                                 |
\*---------------------------------------------------------------------------*/
FoamFile
{
    version     2.0;
    format      ascii;
    class       volScalarField;
    location    "0.8";
    object      p_rgh;
}
// * * * * * * * * * * * * * * * * * * * * * * * * * * * * * * * * * * * * * //

dimensions      [1 -1 -2 0 0 0 0];


internalField   nonuniform List<scalar> 
2268
(
702.246
698.073
696.085
696.86
700.295
705.713
712.692
720.943
730.268
740.512
751.531
763.196
775.416
788.083
801.015
813.932
826.552
837.993
846.574
853.488
857.396
857.431
852.992
702.675
697.822
695.747
696.811
700.514
706.085
713.112
721.333
730.577
740.701
751.581
763.109
775.183
787.708
800.504
813.323
825.85
837.602
846.687
851.535
854.105
853.399
850.176
700.963
696.402
694.994
696.565
700.569
706.317
713.434
721.675
730.879
740.913
751.662
763.031
774.932
787.272
799.898
812.564
824.923
836.532
846.749
853.716
855.902
853.163
846.516
697.592
693.882
693.532
695.722
700.09
706.071
713.335
721.657
730.889
740.901
751.583
762.847
774.624
786.837
799.351
811.923
824.194
835.698
845.682
852.692
855.205
851.163
842.233
693.213
690.535
691.325
694.183
698.986
705.267
712.746
721.223
730.558
740.624
751.305
762.521
774.23
786.383
798.864
811.431
823.735
835.322
845.388
852.56
855.305
850.264
837.663
688.036
686.518
688.433
691.975
697.267
703.916
711.684
720.392
729.907
740.098
750.837
762.049
773.733
785.883
798.402
811.044
823.487
835.337
845.744
853.406
857.082
851.444
832.399
682.081
681.834
684.814
689.06
694.912
702.023
710.171
719.191
728.962
739.347
750.198
761.435
773.124
785.316
797.933
810.721
823.391
835.637
846.578
855.05
860.099
853.104
824.055
675.603
676.215
680.007
685.009
691.607
699.407
708.131
717.609
727.743
738.404
749.412
760.686
772.384
784.637
797.404
810.408
823.38
836.1
847.722
857.241
862.861
851.331
810.158
1172.06
1116.35
943.616
763.342
702.442
711.231
720.748
711.993
699.79
708.94
756.002
834.475
903.092
932.737
954.306
979.663
986.499
960.617
946.698
1206.72
1115.13
897.511
701.243
666.551
705.135
723.741
711.62
691.888
691.643
727.466
798.437
870.451
906.994
931.363
956.879
965.998
947.24
946.514
1282.18
1063.15
789.946
622.297
631.998
702.138
732.144
716.637
686.272
673.123
695.849
759.757
836.696
876.785
906.319
940.796
950.81
940.806
942.813
1276.22
953.335
659.196
523.039
596.548
705.898
750.222
726.274
678.932
653.871
666.265
725.187
811.724
852.382
880.877
920.89
952.969
941.674
932.513
1201.07
813.182
467.145
370.186
541.895
709.787
774.642
717.264
600.763
554.121
601.151
698.744
794.668
831.697
855.605
900.23
942.979
959.767
930.758
1090.59
716.394
324.025
297.511
442.923
649.89
710.34
556.381
412.554
402.02
417.61
584.54
786.113
810.31
825.437
875.928
927.629
960.744
933.114
984.664
616.97
305.414
293.617
385.323
658.949
606.763
432.01
406.231
401.62
408.317
442.186
693.585
714.326
760.425
843.816
902.984
950.13
949.625
904.629
578.432
304.713
294.559
452.631
669.995
687.942
443.067
407.901
401.428
406.177
427.379
595.237
464.782
548.929
765.392
855.086
925.473
942.383
663.171
664.481
668.577
675.301
683.584
693.192
703.477
714.169
725.232
736.583
747.967
759.291
770.97
783.324
796.427
809.895
823.431
837.059
850.347
862.499
868.847
852.275
801.993
297.883
296.084
309.363
337.165
385.271
445.206
507.533
567.132
623.383
676.224
720.397
748.63
764.341
778.516
794.741
809.124
822.977
838.245
855.671
875.251
892.584
896.592
887.083
2.74277
2.33095
2.83104
4.39819
9.01346
20.4766
40.2701
68.3473
103.252
142.078
184.237
237.114
313.418
406.723
496.274
572.091
631.277
675.848
738.818
813.302
884.416
922.543
947.923
0.729837
0.669467
0.694528
0.685678
0.667955
0.639167
0.58815
0.529448
0.488778
0.474889
0.474733
0.467959
0.46692
0.480151
0.520486
0.588321
1.32101
63.3501
121.059
220.548
386.01
535.294
702.362
0.570301
0.561624
0.563413
0.548964
0.521554
0.488405
0.46272
0.449608
0.44809
0.455743
0.469296
0.48647
0.507435
0.533214
0.560967
0.592557
0.633898
0.666938
0.806107
1.0811
2.13601
10.148
94.7658
0.533434
0.53303
0.533639
0.525332
0.508878
0.48875
0.4725
0.463221
0.461253
0.466111
0.476443
0.491252
0.510438
0.535648
0.571927
0.621032
0.675795
0.726035
0.825318
0.998029
1.55405
4.04169
11.8331
0.502891
0.502782
0.502481
0.498369
0.490595
0.481035
0.472367
0.466625
0.46542
0.469589
0.478883
0.492934
0.512156
0.537997
0.572792
0.618348
0.673131
0.737649
0.835136
0.96947
1.26572
2.2474
6.16353
0.475809
0.476294
0.476082
0.473897
0.46985
0.464946
0.460666
0.458399
0.459328
0.464247
0.473429
0.486982
0.505322
0.529169
0.559314
0.596443
0.639909
0.689524
0.749817
0.814178
0.925661
1.37847
3.59227
0.451316
0.452553
0.452981
0.452082
0.450073
0.447642
0.445771
0.445427
0.447422
0.452384
0.460733
0.472735
0.488575
0.508341
0.531947
0.558923
0.587542
0.614625
0.635828
0.641357
0.644564
0.794618
1.92846
0.427842
0.429434
0.430353
0.430379
0.429759
0.428965
0.428576
0.429191
0.431372
0.43564
0.442429
0.451996
0.464303
0.47892
0.495041
0.51139
0.525539
0.533127
0.527347
0.499034
0.448922
0.437874
0.835554
0.405184
0.406782
0.407938
0.408545
0.408799
0.408996
0.409423
0.410391
0.412249
0.415397
0.420212
0.426894
0.435237
0.444461
0.453248
0.459782
0.461431
0.45387
0.430483
0.383362
0.308588
0.222372
0.292376
0.383285
0.384712
0.385927
0.386849
0.387591
0.388293
0.389041
0.389933
0.391139
0.392929
0.395597
0.399274
0.403649
0.40776
0.410018
0.408349
0.400107
0.381431
0.34654
0.288659
0.203099
0.0901344
-0.0128355
0.362014
0.363193
0.364353
0.365406
0.366371
0.36726
0.368013
0.368568
0.368947
0.369297
0.369831
0.370624
0.371321
0.370897
0.367681
0.359576
0.344076
0.317829
0.276068
0.213071
0.124246
0.00679199
-0.135186
0.341302
0.342228
0.34327
0.344322
0.345321
0.346189
0.346761
0.346855
0.346366
0.345327
0.343876
0.342065
0.33955
0.335337
0.327788
0.314895
0.29442
0.263588
0.2186
0.154834
0.0682938
-0.043785
-0.180537
0.321142
0.321855
0.322756
0.323709
0.324605
0.325313
0.325605
0.325208
0.323907
0.321629
0.318441
0.314388
0.309194
0.301974
0.291207
0.275031
0.251489
0.218373
0.172785
0.111178
0.030335
-0.0720689
-0.19606
0.301552
0.302109
0.30286
0.303644
0.304336
0.304793
0.304756
0.303897
0.301911
0.29862
0.294012
0.288129
0.280793
0.271288
0.25829
0.240107
0.21503
0.181311
0.136828
0.0789748
0.00528887
-0.0859699
-0.195247
0.282551
0.282997
0.283595
0.284158
0.284575
0.28472
0.284339
0.283077
0.280563
0.276526
0.270864
0.263601
0.254649
0.243498
0.229071
0.209891
0.184452
0.151343
0.109032
0.055667
-0.0105376
-0.0908369
-0.185633
0.264142
0.264508
0.264949
0.265257
0.265354
0.265151
0.264424
0.262821
0.259938
0.255425
0.249089
0.240906
0.230853
0.218621
0.203406
0.183985
0.159038
0.12738
0.08789
0.0392919
-0.0196423
-0.0897356
-0.171215
0.246328
0.246632
0.246917
0.246954
0.24671
0.246141
0.245071
0.243179
0.240058
0.235306
0.228644
0.21998
0.209313
0.196494
0.180994
0.161868
0.137988
0.108327
0.0720132
0.0281701
-0.0240033
-0.0850141
-0.155024
0.22912
0.229377
0.229512
0.229283
0.2287
0.227766
0.226358
0.22421
0.220941
0.216128
0.209426
0.200662
0.18981
0.176827
0.161422
0.142935
0.120454
0.0930869
0.0600954
0.0208339
-0.0252125
-0.078345
-0.13874
0.212547
0.212772
0.212773
0.2123
0.211399
0.210117
0.208383
0.205997
0.202626
0.197862
0.191321
0.182754
0.172078
0.159288
0.144264
0.12661
0.105659
0.0806608
0.0509631
0.016029
-0.0245041
-0.0708221
-0.123126
0.196651
0.196857
0.196747
0.196065
0.194886
0.193289
0.19125
0.188634
0.185175
0.180507
0.174242
0.166075
0.155853
0.143554
0.12915
0.112447
0.0930162
0.070287
0.0436923
0.0127489
-0.0228466
-0.0632422
-0.108677
0.181472
0.181672
0.181479
0.180634
0.179228
0.177361
0.175049
0.172213
0.168659
0.164086
0.158134
0.150473
0.140891
0.129316
0.115739
0.10009
0.0821315
0.0614795
0.0376834
0.0103114
-0.0209232
-0.0561795
-0.0957516
0.167043
0.167248
0.166999
0.166039
0.164464
0.162385
0.159843
0.156806
0.153149
0.148643
0.14298
0.135842
0.126985
0.11628
0.103691
0.0891959
0.0726865
0.0539308
0.0326056
0.00835251
-0.0190958
-0.0499197
-0.0844702
0.15338
0.153596
0.153316
0.152287
0.150603
0.148376
0.145659
0.142455
0.138697
0.134224
0.128795
0.122131
0.113987
0.104195
0.0926788
0.0794127
0.0643485
0.0473585
0.0282288
0.00668331
-0.0175079
-0.0445288
-0.074765
0.140478
0.140708
0.14042
0.139363
0.137625
0.135313
0.132483
0.129161
0.125322
0.120864
0.11561
0.109341
0.101834
0.0929095
0.0824578
0.0704303
0.056791
0.041465
0.0243143
0.00513668
-0.0162504
-0.040011
-0.0665324
0.128318
0.128562
0.128281
0.127229
0.125487
0.123149
0.12027
0.116891
0.11301
0.108571
0.103458
0.0975075
0.090538
0.0823796
0.0729095
0.0620561
0.0497734
0.0360029
0.0206478
0.00356015
-0.015397
-0.036354
-0.0596715
0.116864
0.11712
0.116857
0.115835
0.114129
0.111818
0.108954
0.105582
0.101714
0.0973245
0.0923451
0.0866644
0.080143
0.0726376
0.0640297
0.0542359
0.0431961
0.0308499
0.0171169
0.00188238
-0.0149556
-0.0334898
-0.0540377
0.106074
0.106339
0.106098
0.105126
0.103486
0.101244
0.0984531
0.0951506
0.0913551
0.0870634
0.0822393
0.0768121
0.0706817
0.0637363
0.055874
0.0470119
0.0370808
0.0260135
0.0137331
0.000142303
-0.0148382
-0.0312678
-0.0494134
0.0959008
0.0961689
0.0959541
0.0950441
0.0934889
0.09135
0.0886772
0.0854987
0.0818357
0.0776971
0.0730685
0.0679077
0.0621465
0.0557035
0.0484979
0.0404551
0.0315045
0.0215736
0.0105852
-0.00154879
-0.014893
-0.0294793
-0.0455254
0.0862932
0.0865612
0.0863724
0.0855286
0.0840706
0.0820599
0.079538
0.076527
0.0730491
0.0691188
0.0647339
0.0598711
0.0544856
0.0485211
0.0419169
0.0346099
0.0265327
0.0176129
0.00777567
-0.00306009
-0.0149497
-0.027904
-0.0420975
0.0771997
0.0774648
0.0772994
0.0765225
0.0751695
0.0733029
0.0709542
0.068144
0.0648944
0.061221
0.0571276
0.0526015
0.0476143
0.0421276
0.0360972
0.0294706
0.0221882
0.0141837
0.0053864
-0.00427819
-0.0148586
-0.0263515
-0.0388963
0.0685702
0.0688281
0.0686821
0.0679704
0.0667279
0.0650143
0.0628541
0.0602695
0.0572818
0.053905
0.050144
0.0459918
0.0414301
0.0364319
0.030966
0.0249891
0.018452
0.0112959
0.00345658
-0.00513431
-0.0145199
-0.024688
-0.0357518
0.0603549
0.0605972
0.0604653
0.0598163
0.0586882
0.0571324
0.0551725
0.0528327
0.0501322
0.0470822
0.0436859
0.0399384
0.0358277
0.0313351
0.0264329
0.0210921
0.0152715
0.00891969
0.00197873
-0.00561272
-0.0138927
-0.0228439
-0.0325602
0.0525019
0.0527164
0.0525899
0.0520014
0.0509897
0.0495963
0.0478478
0.0457688
0.0433757
0.0406759
0.0376691
0.0343504
0.0307107
0.0267355
0.0224053
0.0176962
0.0125746
0.00699616
0.000909587
-0.00573917
-0.0129827
-0.020801
-0.0292723
0.0449584
0.045128
0.0449934
0.0444643
0.043571
0.042347
0.0408221
0.0390196
0.0369529
0.0346244
0.0320283
0.0291566
0.0260023
0.0225543
0.0187983
0.0147155
0.0102785
0.00544943
0.000183724
-0.0055657
-0.0118261
-0.0185758
-0.0258798
0.0376715
0.0377725
0.0376128
0.0371446
0.0363746
0.0353305
0.034043
0.032534
0.0308139
0.028879
0.0267134
0.0243014
0.0216385
0.0187184
0.0155317
0.0120652
0.00829777
0.0041978
-0.000273521
-0.00515693
-0.0104746
-0.0162048
-0.0224017
0.0305888
0.0305857
0.0303883
0.0299896
0.029354
0.0285026
0.0274665
0.0262678
0.0249155
0.0233993
0.0216838
0.0197364
0.0175613
0.0151609
0.0125324
0.00966874
0.00655466
0.00316397
-0.000536569
-0.00458124
-0.00898753
-0.0137363
-0.018872
0.023659
0.0235053
0.023274
0.0229655
0.0224805
0.0218332
0.0210601
0.0201866
0.0192243
0.0181595
0.016919
0.0154334
0.0137325
0.0118361
0.00974898
0.00746909
0.00498593
0.00227897
-0.000677916
-0.00391138
-0.00743495
-0.0112337
-0.0153388
0.0168249
0.0165033
0.0162558
0.0160541
0.0157234
0.0152824
0.0147784
0.0142442
0.0137089
0.0131804
0.0124851
0.0114439
0.0101815
0.00875666
0.00717672
0.00544248
0.00354861
0.00148179
-0.000775696
-0.00324141
-0.00592273
-0.00880515
-0.0118989
0.0100761
0.0096173
0.00936079
0.00923057
0.00902535
0.00877746
0.00854262
0.00836166
0.00831177
0.00851627
0.00858207
0.00781001
0.00689366
0.0058884
0.00477045
0.00353706
0.00218679
0.000712784
-0.000893835
-0.00263919
-0.0045196
-0.00651638
-0.00863855
0.0034443
0.00302485
0.00278513
0.0026706
0.00257303
0.00250774
0.00250156
0.00257783
0.00281994
0.00345682
0.00399761
0.00333615
0.0028262
0.00234277
0.00180753
0.00120616
0.000534552
-0.000210979
-0.00103088
-0.0019192
-0.00286151
-0.00383412
-0.00481703
759.076
695.52
613.891
597.681
877.024
788.237
798.799
838.761
979.955
1006.78
1008.47
1027.02
945.605
1023.77
1019.68
999.774
586.621
995.967
1073.88
910.205
77.0368
577.582
973.8
690.157
19.4312
243.373
613.635
769.672
11.9691
136.041
459.467
669.916
7.35222
55.1267
314.27
535.58
3.41768
14.9578
157.999
412.982
0.813655
2.7061
10.5043
188.907
0.0365548
0.283696
0.500567
1.84231
-0.237215
-0.26026
-0.163643
-0.198085
-0.296139
-0.366098
-0.426693
-0.460786
-0.30461
-0.377801
-0.453837
-0.528264
-0.294764
-0.365525
-0.439314
-0.515958
-0.274268
-0.340258
-0.409535
-0.478902
-0.248469
-0.307824
-0.371074
-0.433391
-0.22221
-0.274986
-0.331788
-0.387437
-0.197352
-0.244137
-0.294877
-0.344466
-0.174347
-0.215748
-0.260969
-0.305202
-0.15349
-0.190092
-0.230355
-0.269867
-0.135012
-0.167353
-0.20318
-0.238503
-0.118886
-0.147428
-0.179278
-0.210854
-0.104914
-0.130051
-0.158314
-0.186507
-0.0929105
-0.114983
-0.13998
-0.165076
-0.0827274
-0.102043
-0.124044
-0.14626
-0.0741841
-0.0910269
-0.110278
-0.129801
-0.0670249
-0.0816696
-0.0984158
-0.115433
-0.0609324
-0.0736453
-0.0881487
-0.102874
-0.0555834
-0.066617
-0.07915
-0.0918256
-0.0507074
-0.0602938
-0.071123
-0.0820046
-0.0460968
-0.0544398
-0.063812
-0.0731546
-0.0416047
-0.0488711
-0.0569972
-0.0650334
-0.0371404
-0.0434573
-0.050503
-0.0574243
-0.0326605
-0.0381154
-0.0441977
-0.0501453
-0.0281549
-0.0328009
-0.0379927
-0.043061
-0.0236377
-0.0275042
-0.0318426
-0.0360845
-0.0191361
-0.0222311
-0.0257212
-0.0291532
-0.0147032
-0.0170051
-0.0196296
-0.0222521
-0.0105526
-0.0120799
-0.0138027
-0.0155201
-0.00565342
-0.00627763
-0.00696387
-0.00764546
823.15
547.328
316.272
332.849
589.259
651.934
674.316
686.259
453.462
402.563
406.285
493.643
550.388
376.037
349.1
484.101
606.01
797.56
928.157
867.19
696.073
656.821
634.424
601.064
457.645
534.866
663.254
718.986
442.215
426.956
650.831
564.169
346.35
316.966
312.445
315.101
391.008
825.519
1024.3
868.799
755.969
562.807
111.55
57.939
129.131
538.575
741.676
584.872
450.494
789.011
558.703
352.282
305.469
306.384
305.23
299.782
352.869
893.497
659.36
111.467
35.462
37.2405
39.0086
44.9561
316.311
726.044
617.766
575.192
836.131
494.896
281.29
285.682
303.16
298.076
285.762
267.624
301.991
31.4048
35.8405
36.2835
36.3608
37.2696
41.0929
153.958
696.743
919.267
898.135
882.981
476.881
251.114
260.34
305.772
311.346
287.972
257.227
158.891
36.5496
36.2803
36.2426
36.4888
37.3881
40.949
136.099
685.711
903.992
925.355
929.018
541.291
214.049
215.154
248.787
269.971
292.536
270.799
236.204
36.6238
36.2568
36.2823
36.6265
37.6004
40.2464
137.463
350.439
526.765
858.752
973.839
599.725
159.506
160.299
152.699
183.038
259.629
270.94
369.88
36.5917
36.3917
36.5271
37.2354
51.5071
87.2295
82.0445
63.4415
268.052
1022.16
1021.49
540.944
104.657
84.3272
56.9666
35.1956
222.577
254.689
497.044
125.026
37.0914
38.5991
57.1404
58.6004
48.865
39.3171
50.0817
330.465
1070.64
1040
377.239
80.3498
33.7034
17.0745
12.0998
138.354
230.883
465.296
368.646
50.5767
41.0889
47.9013
51.894
37.2263
38.2533
41.8176
807.609
1114.61
319.785
138.526
61.1642
17.9658
3.07583
3.63702
21.7455
213.441
397.746
415.67
275.85
41.1088
40.3027
38.9114
37.418
35.8485
319.979
851.996
480.396
2.51068
10.2622
40.5698
2.07059
0.703621
0.938492
7.22061
206.231
144.704
423.479
471.19
222.764
39.1087
38.682
47.4441
141.312
674.243
625.508
0.0108936
1.11596
4.58896
17.1141
-0.123387
0.0971653
0.045964
3.658
212.473
-0.523562
75.8572
505.361
562.239
574.874
590.426
631.279
626.495
332.304
-0.529097
-0.0844501
1.09987
5.28423
1.30632
-0.262215
-0.0325759
0.00697065
0.0675983
221.609
-0.499834
-0.853787
-1.97852
212.461
435.101
437.026
274.766
121.411
-0.780784
-0.324382
-0.160123
0.940472
0.934515
-0.394362
-0.258792
-0.139577
0.188887
-0.442083
227.659
-0.644592
-0.865014
-0.926674
-1.21586
-2.16439
-2.02658
-1.73188
-0.951722
-0.462461
-0.354051
-0.143027
0.015973
-0.376819
-0.384809
-0.305927
-0.270188
-0.144328
-0.423592
154.416
-0.64383
-0.827425
-0.936333
-0.994256
-1.07535
-0.975419
-0.829068
-0.607849
-0.455978
-0.360946
-0.252589
-0.321797
-0.391164
-0.402598
-0.336337
-0.33418
-0.351235
-0.384434
34.0276
-0.58887
-0.740819
-0.867986
-0.945582
-0.997784
-0.935693
-0.802837
-0.610124
-0.445962
-0.358616
-0.317067
-0.352033
-0.397475
-0.412455
-0.369595
-0.332296
-0.281474
-0.253593
20.7635
-0.526402
-0.643895
-0.744357
-0.816527
-0.85398
-0.812925
-0.715154
-0.591481
-0.4313
-0.357338
-0.357158
-0.370759
-0.400269
-0.404852
-0.367421
-0.302966
-0.205319
-0.0905935
1.08441
-0.467312
-0.559967
-0.63711
-0.691916
-0.715877
-0.689779
-0.624663
-0.541229
-0.451769
-0.366119
-0.371304
-0.386305
-0.40165
-0.39683
-0.356981
-0.286038
-0.166637
0.154231
1.32679
-0.413865
-0.490306
-0.553347
-0.597179
-0.615323
-0.600378
-0.558949
-0.504744
-0.453834
-0.400771
-0.382574
-0.397957
-0.406564
-0.399966
-0.366084
-0.300698
-0.156822
1.71174
27.3679
-0.366154
-0.431218
-0.485087
-0.52313
-0.540512
-0.534466
-0.509715
-0.475486
-0.442202
-0.418093
-0.402328
-0.405695
-0.415758
-0.416425
-0.400589
-0.358547
-0.214442
10.6537
79.4657
-0.323874
-0.380497
-0.427934
-0.462642
-0.480898
-0.481665
-0.468585
-0.447801
-0.427559
-0.413361
-0.408401
-0.41284
-0.426587
-0.441231
-0.451112
-0.448505
-0.393686
31.6177
82.6049
-0.286634
-0.336757
-0.379453
-0.411967
-0.431279
-0.436969
-0.431982
-0.420851
-0.409636
-0.402842
-0.403523
-0.413729
-0.433915
-0.462352
-0.497642
-0.540866
-0.633303
37.8083
86.2151
-0.253902
-0.298787
-0.337736
-0.368525
-0.388561
-0.397593
-0.398048
-0.393832
-0.388992
-0.387377
-0.391994
-0.405628
-0.430077
-0.465952
-0.514644
-0.582294
-0.721694
11.2169
89.4438
-0.22507
-0.26553
-0.301286
-0.330471
-0.350739
-0.361811
-0.365711
-0.365762
-0.365277
-0.366975
-0.373522
-0.387644
-0.411188
-0.444859
-0.489229
-0.545213
-0.632987
0.586425
92.04
-0.199588
-0.236147
-0.269025
-0.29659
-0.316639
-0.328745
-0.334564
-0.33696
-0.338738
-0.341985
-0.348518
-0.360303
-0.378661
-0.40359
-0.434452
-0.466824
-0.495476
-0.516435
94.7385
-0.177022
-0.210009
-0.240183
-0.266079
-0.28558
-0.298047
-0.304731
-0.308074
-0.310514
-0.31367
-0.318591
-0.326352
-0.337705
-0.352571
-0.37003
-0.385638
-0.386796
-0.398986
95.6849
-0.157032
-0.186649
-0.214189
-0.23834
-0.257072
-0.269527
-0.27649
-0.279923
-0.281952
-0.283879
-0.286254
-0.289508
-0.294074
-0.300168
-0.307768
-0.314962
-0.310343
-0.312437
62.7744
-0.139336
-0.165713
-0.190615
-0.212895
-0.230665
-0.242906
-0.249908
-0.253105
-0.254251
-0.254453
-0.254023
-0.253086
-0.251916
-0.250908
-0.250835
-0.251414
-0.244514
-0.23397
4.73881
-0.123673
-0.146931
-0.169153
-0.189391
-0.205967
-0.217806
-0.224803
-0.227806
-0.22811
-0.22662
-0.223669
-0.219293
-0.213602
-0.206846
-0.199468
-0.190755
-0.176537
-0.153385
-0.159676
-0.109794
-0.130087
-0.149609
-0.167622
-0.182723
-0.193904
-0.20081
-0.203777
-0.203567
-0.200863
-0.196068
-0.189269
-0.180413
-0.169244
-0.155339
-0.137001
-0.11033
-0.0677318
0.00906028
-0.0974457
-0.114982
-0.131861
-0.147523
-0.160872
-0.171075
-0.177489
-0.180507
-0.180168
-0.177039
-0.17137
-0.163398
-0.152977
-0.139389
-0.121105
-0.0961835
-0.058795
-0.00077456
0.233688
-0.0863827
-0.101416
-0.115809
-0.129114
-0.140521
-0.149413
-0.15492
-0.157787
-0.157755
-0.154774
-0.149144
-0.141309
-0.131083
-0.117598
-0.0990245
-0.0728167
-0.036443
0.00787805
13.793
-0.0763553
-0.0891677
-0.101318
-0.112404
-0.121834
-0.129203
-0.133962
-0.135331
-0.136259
-0.133606
-0.128656
-0.121996
-0.113497
-0.102347
-0.0868408
-0.0651875
-0.0371245
-0.0123568
27.4238
-0.0671119
-0.0779868
-0.0881839
-0.097311
-0.104907
-0.11073
-0.114582
-0.11493
-0.11608
-0.1135
-0.109436
-0.104479
-0.0986352
-0.091214
-0.0806719
-0.0664393
0.0895519
0.08444
28.1063
-0.0584178
-0.0676085
-0.0761403
-0.0836286
-0.0896776
-0.0941316
-0.096931
-0.0980793
-0.084704
-0.0470326
-0.0128809
-0.00760581
-0.0274055
-0.0757926
-0.077295
-0.0477078
0.542515
0.185594
28.8032
-0.0500776
-0.0577855
-0.0648945
-0.0710546
-0.0759083
-0.0793123
-0.0811476
-0.0815726
-0.0615097
0.00603811
0.0085531
0.0104049
0.0111505
-0.0563124
-0.0748282
0.483025
0.53292
-0.075069
29.2407
-0.0419423
-0.048305
-0.0541579
-0.0592273
-0.0632275
-0.0659875
-0.0670634
-0.0667061
-0.064807
-0.0202202
0.0249188
0.0256459
-0.0206448
-0.0659815
0.398539
0.713214
0.470808
-0.135804
27.5066
-0.0339081
-0.0390102
-0.0436906
-0.047792
-0.0512042
-0.0538244
-0.0544693
-0.0532076
-0.0516255
-0.0501443
-0.0219028
-0.0207146
-0.0470958
-0.0556032
0.109416
0.694526
0.100697
-0.160512
8.63818
-0.0259395
-0.0298169
-0.0333387
-0.0365006
-0.039578
-0.0429691
-0.0442047
-0.0417651
-0.0393566
-0.0374673
-0.0358845
-0.0348026
-0.0351154
-0.0385424
-0.0411232
-0.0808969
-0.133456
-0.158817
3.27552
-0.0179183
-0.020467
-0.0227735
-0.0250513
-0.0284878
-0.0351385
-0.0390887
-0.0345533
-0.0308673
-0.0281891
-0.0255094
-0.0225742
-0.0192888
-0.0152717
-0.0122168
-0.0467275
-0.151
-0.275368
5.62877
-0.00860591
-0.00955645
-0.0104021
-0.0116573
-0.0160085
-0.0318514
-0.0313714
-0.0244994
-0.0205232
-0.0178621
-0.0149175
-0.0110601
-0.00543979
0.00611897
0.0302777
0.00830477
-0.164557
-0.620847
1.30832
)
;

boundaryField
{
    leftWall
    {
        type            fixedFluxPressure;
        gradient        uniform 0;
        value           nonuniform List<scalar> 
50
(
702.246
702.675
700.963
697.592
693.213
688.036
682.081
675.603
663.171
297.883
2.74277
0.729837
0.570301
0.533434
0.502891
0.475809
0.451316
0.427842
0.405184
0.383285
0.362014
0.341302
0.321142
0.301552
0.282551
0.264142
0.246328
0.22912
0.212547
0.196651
0.181472
0.167043
0.15338
0.140478
0.128318
0.116864
0.106074
0.0959008
0.0862932
0.0771997
0.0685702
0.0603549
0.0525019
0.0449584
0.0376715
0.0305888
0.023659
0.0168249
0.0100761
0.0034443
)
;
    }
    rightWall
    {
        type            fixedFluxPressure;
        gradient        uniform 0;
        value           nonuniform List<scalar> 
50
(
946.698
946.514
942.813
932.513
930.758
933.114
949.625
942.383
928.157
825.519
352.869
267.624
257.227
270.799
270.94
254.689
230.883
213.441
206.231
212.473
221.609
227.659
154.416
34.0276
20.7635
1.08441
1.32679
27.3679
79.4657
82.6049
86.2151
89.4438
92.04
94.7385
95.6849
62.7744
4.73881
-0.159676
0.00906028
0.233688
13.793
27.4238
28.1063
28.8032
29.2407
27.5066
8.63818
3.27552
5.62877
1.30832
)
;
    }
    lowerWall
    {
        type            fixedFluxPressure;
        gradient        uniform 0;
        value           nonuniform List<scalar> 
62
(
702.246
698.073
696.085
696.86
700.295
705.713
712.692
720.943
730.268
740.512
751.531
763.196
775.416
788.083
801.015
813.932
826.552
837.993
846.574
853.488
857.396
857.431
852.992
852.992
850.176
846.516
842.233
837.663
832.399
824.055
810.158
759.076
695.52
613.891
597.681
1172.06
1206.72
1282.18
1276.22
1201.07
1090.59
984.664
904.629
1172.06
1116.35
943.616
763.342
702.442
711.231
720.748
711.993
699.79
708.94
756.002
834.475
903.092
932.737
954.306
979.663
986.499
960.617
946.698
)
;
    }
    atmosphere
    {
        type            totalPressure;
        rho             rho;
        psi             none;
        gamma           1;
        p0              uniform 0;
        value           nonuniform List<scalar> 
46
(
0
0
0
0
0
0
0
0
0
0
0
-1.0309e-05
-4.85678e-05
-0.000120476
-0.000231819
-0.00038778
-0.00059188
-0.000844476
-0.00114099
-0.00147013
-0.00181221
-0.00213816
-0.00240966
-0.00254057
-0.00262198
-0.00270473
-0.00278384
-0.0028727
-0.00264903
-0.00212253
-0.00141718
-0.000696545
-0.000115401
0
0
0
0
0
0
0
0
0
-0.0069241
-0.0474062
-0.136514
0
)
;
    }
    defaultFaces
    {
        type            empty;
    }
}


// ************************************************************************* //
