/*--------------------------------*- C++ -*----------------------------------*\
| =========                 |                                                 |
| \\      /  F ield         | OpenFOAM: The Open Source CFD Toolbox           |
|  \\    /   O peration     | Version:  v2012                                 |
|   \\  /    A nd           | Website:  www.openfoam.com                      |
|    \\/     M anipulation  |                                                 |
\*---------------------------------------------------------------------------*/
FoamFile
{
    version     2.0;
    format      ascii;
    class       surfaceScalarField;
    location    "0.25";
    object      alphaPhi0.water;
}
// * * * * * * * * * * * * * * * * * * * * * * * * * * * * * * * * * * * * * //

dimensions      [0 3 -1 0 0 0 0];
oriented        oriented;


internalField   nonuniform List<scalar> 
4432
(
-3.53475e-06
3.53475e-06
-1.19562e-06
-2.33913e-06
3.69288e-06
-4.8885e-06
9.34982e-06
-5.65695e-06
1.50618e-05
-5.71198e-06
2.06627e-05
-5.60087e-06
2.61819e-05
-5.51919e-06
3.16811e-05
-5.49925e-06
3.7203e-05
-5.5219e-06
4.27532e-05
-5.55021e-06
4.82889e-05
-5.53567e-06
5.37051e-05
-5.4162e-06
5.88153e-05
-5.11018e-06
6.33224e-05
-4.50712e-06
6.6762e-05
-3.43954e-06
6.83418e-05
-1.57982e-06
6.66143e-05
1.7275e-06
5.97544e-05
6.85987e-06
4.64802e-05
1.32742e-05
2.69017e-05
1.95785e-05
3.8169e-06
2.30848e-05
-1.22258e-05
1.70403e-05
-1.27574e-05
-5.32985e-07
4.06773e-06
2.63008e-06
-5.5022e-06
7.56826e-06
-9.82668e-06
1.30543e-05
-1.1143e-05
1.86367e-05
-1.12944e-05
2.41874e-05
-1.11516e-05
2.97073e-05
-1.10391e-05
3.5233e-05
-1.10249e-05
4.07891e-05
-1.10781e-05
4.6369e-05
-1.113e-05
5.19222e-05
-1.10889e-05
5.73425e-05
-1.08365e-05
6.24501e-05
-1.02178e-05
6.69705e-05
-9.02758e-06
7.0516e-05
-6.98502e-06
7.26408e-05
-3.70464e-06
7.29164e-05
1.45197e-06
7.04798e-05
9.29643e-06
6.34739e-05
2.02802e-05
4.96444e-05
3.3408e-05
2.85034e-05
4.42258e-05
7.24035e-06
3.85175e-05
-5.6746e-06
1.49751e-06
2.57022e-06
5.24238e-06
-9.24708e-06
1.01889e-05
-1.47732e-05
1.55354e-05
-1.64894e-05
2.09662e-05
-1.67253e-05
2.63963e-05
-1.65816e-05
3.1828e-05
-1.64709e-05
3.7286e-05
-1.64829e-05
4.27834e-05
-1.65755e-05
4.83054e-05
-1.66521e-05
5.37987e-05
-1.65821e-05
5.91588e-05
-1.61966e-05
6.42157e-05
-1.52746e-05
6.87159e-05
-1.35278e-05
7.23104e-05
-1.05795e-05
7.45535e-05
-5.94778e-06
7.49784e-05
1.02707e-06
7.30751e-05
1.11997e-05
6.80507e-05
2.53047e-05
5.85705e-05
4.28881e-05
4.27134e-05
6.0083e-05
2.13286e-05
5.99023e-05
1.48127e-05
2.69678e-06
-1.26561e-07
7.07647e-06
-1.36268e-05
1.21682e-05
-1.98649e-05
1.7461e-05
-2.17823e-05
2.27799e-05
-2.20441e-05
2.80986e-05
-2.19003e-05
3.34362e-05
-2.18085e-05
3.88154e-05
-2.18621e-05
4.42437e-05
-2.20038e-05
4.97031e-05
-2.21114e-05
5.51402e-05
-2.20192e-05
6.04554e-05
-2.15119e-05
6.54889e-05
-2.03081e-05
7.00054e-05
-1.80443e-05
7.36851e-05
-1.42592e-05
7.61223e-05
-8.385e-06
7.68654e-05
2.83898e-07
7.54603e-05
1.26048e-05
7.13954e-05
2.93696e-05
6.38483e-05
5.04351e-05
5.09612e-05
7.29701e-05
3.03793e-05
8.04842e-05
4.39611e-05
3.36596e-06
-3.49252e-06
8.32345e-06
-1.85843e-05
1.36314e-05
-2.51729e-05
1.89366e-05
-2.70875e-05
2.41869e-05
-2.72944e-05
2.94185e-05
-2.71319e-05
3.46733e-05
-2.70632e-05
3.99788e-05
-2.71676e-05
4.53423e-05
-2.73673e-05
5.07461e-05
-2.75153e-05
5.61406e-05
-2.74137e-05
6.14333e-05
-2.68047e-05
6.64762e-05
-2.53509e-05
7.10512e-05
-2.26193e-05
7.48643e-05
-1.80723e-05
7.75477e-05
-1.10684e-05
7.86894e-05
-8.5778e-07
7.78755e-05
1.34187e-05
7.46574e-05
3.25877e-05
6.83021e-05
5.67904e-05
5.70653e-05
8.42069e-05
3.69186e-05
0.000100631
7.97739e-05
3.76711e-06
-7.25963e-06
9.15626e-06
-2.39734e-05
1.46632e-05
-3.06798e-05
2.00019e-05
-3.24262e-05
2.52095e-05
-3.25021e-05
3.03744e-05
-3.22967e-05
3.55598e-05
-3.22487e-05
4.08003e-05
-3.24081e-05
4.61062e-05
-3.26732e-05
5.14633e-05
-3.28724e-05
5.68284e-05
-3.27787e-05
6.21188e-05
-3.2095e-05
6.71996e-05
-3.04317e-05
7.18703e-05
-2.72901e-05
7.58601e-05
-2.20621e-05
7.88362e-05
-1.40445e-05
8.04332e-05
-2.4548e-06
8.02828e-05
1.35691e-05
7.79763e-05
3.48943e-05
7.27868e-05
6.19799e-05
6.29802e-05
9.40134e-05
4.3341e-05
0.00012027
0.000123653
4.03802e-06
-1.12976e-05
9.7053e-06
-2.96407e-05
1.53439e-05
-3.63184e-05
2.06992e-05
-3.77814e-05
2.58689e-05
-3.76718e-05
3.09771e-05
-3.74049e-05
3.61021e-05
-3.73737e-05
4.12842e-05
-3.75902e-05
4.65378e-05
-3.79268e-05
5.18544e-05
-3.8189e-05
5.7199e-05
-3.81233e-05
6.25011e-05
-3.73971e-05
6.76407e-05
-3.55713e-05
7.2435e-05
-3.20844e-05
7.66356e-05
-2.62627e-05
7.9943e-05
-1.73518e-05
8.20417e-05
-4.5535e-06
8.2626e-05
1.29847e-05
8.13639e-05
3.61564e-05
7.76119e-05
6.5732e-05
6.98086e-05
0.000101817
5.16145e-05
0.000138464
0.000177293
4.2358e-06
-1.55334e-05
1.00561e-05
-3.5461e-05
1.5742e-05
-4.20044e-05
2.10761e-05
-4.31155e-05
2.61974e-05
-4.27932e-05
3.12499e-05
-4.24573e-05
3.63181e-05
-4.24419e-05
4.14453e-05
-4.27174e-05
4.66495e-05
-4.3131e-05
5.19285e-05
-4.34681e-05
5.72574e-05
-4.34522e-05
6.25792e-05
-4.27189e-05
6.77905e-05
-4.07826e-05
7.27264e-05
-3.70204e-05
7.71596e-05
-3.06958e-05
8.08223e-05
-2.10146e-05
8.34514e-05
-7.18262e-06
8.48239e-05
1.16122e-05
8.47436e-05
3.62367e-05
8.28222e-05
6.76533e-05
7.79838e-05
0.000106655
6.21485e-05
0.0001543
0.00023944
-3.69025e-23
4.19001e-23
-6.21051e-23
1.34523e-22
-4.52897e-24
2.08708e-23
-4.68179e-25
2.84524e-25
-1.88438e-26
-4.85066e-25
-6.38313e-28
-1.87825e-26
-4.28541e-29
-2.31532e-28
-2.44738e-30
-1.38687e-29
-1.0398e-31
-9.27896e-31
-3.16652e-33
-5.13638e-32
-6.62765e-35
-2.06954e-33
-7.738e-37
-6.01067e-35
2.05095e-39
-1.2255e-36
2.55068e-40
-1.42174e-38
3.8092e-42
-2.36055e-41
1.77359e-44
7.412e-43
-5.61608e-48
7.78866e-45
-5.14181e-48
1.02948e-47
-5.89018e-48
-2.08582e-21
3.19346e-21
-4.50218e-21
9.70794e-21
-1.95615e-21
5.48343e-21
-4.2588e-22
3.11153e-22
-6.92335e-24
-5.3126e-22
-1.19341e-25
-6.91565e-24
-3.91833e-27
-9.3979e-26
-1.36863e-28
-2.58145e-27
-4.43125e-30
-8.39198e-29
-1.18352e-31
-2.86977e-30
-2.37999e-33
-9.11629e-32
-3.23746e-35
-2.29729e-33
-2.19169e-37
-4.18952e-35
9.7881e-40
-4.70927e-37
3.23108e-41
-1.815e-39
1.97298e-43
2.1226e-41
2.65804e-46
2.2814e-43
-1.33208e-48
3.43659e-46
-1.42151e-47
-1.24931e-19
1.44362e-19
-6.97033e-19
1.01666e-18
-8.43949e-19
1.06998e-18
-8.07088e-20
2.12778e-19
-6.84638e-22
-4.12592e-20
-1.01516e-23
-3.74812e-22
-2.63165e-25
-8.94243e-24
-5.61192e-27
-3.67007e-25
-1.1293e-28
-7.85669e-27
-2.19681e-30
-1.36324e-28
-3.63136e-32
-2.4781e-30
-4.42383e-34
-4.38147e-32
-3.20876e-36
-6.22151e-34
-3.66275e-39
-5.9717e-36
1.71517e-40
-2.59366e-38
1.34714e-42
1.11873e-40
3.56211e-45
1.79782e-42
3.29872e-47
4.96728e-45
-1.72976e-46
-4.41466e-18
6.33597e-18
-2.28609e-17
3.80934e-17
-2.34475e-17
3.61678e-17
-8.92591e-19
2.57619e-18
-1.11527e-20
-1.95347e-19
-2.86538e-22
-4.86348e-21
-1.06042e-23
-2.33722e-22
-2.03517e-25
-1.53727e-23
-2.94563e-27
-3.93605e-25
-3.84088e-29
-6.68174e-27
-4.60464e-31
-8.63086e-29
-4.42877e-33
-1.00028e-30
-2.77086e-35
-1.00975e-32
-4.75973e-38
-7.39241e-35
1.01877e-39
-3.14992e-37
1.13459e-41
3.7239e-40
4.748e-44
1.53088e-41
1.33879e-45
5.59036e-44
3.23077e-46
-1.07062e-16
1.59424e-16
-5.03871e-16
8.47624e-16
-6.09165e-17
5.87811e-16
-2.24267e-18
2.07192e-18
-1.05779e-19
-5.26124e-19
-3.85183e-21
-7.55112e-20
-1.40857e-22
-2.97591e-21
-2.93939e-24
-1.15874e-22
-4.65839e-26
-3.24882e-24
-5.72676e-28
-7.8687e-26
-5.7714e-30
-1.42332e-27
-4.65042e-32
-1.9529e-29
-2.44957e-34
-2.07514e-31
-2.75898e-37
-1.5731e-33
1.04316e-38
-7.22126e-36
1.15152e-40
-1.21726e-39
5.0653e-43
1.34718e-40
2.09904e-44
5.61638e-43
4.10044e-44
-1.16874e-15
1.3332e-15
-1.57716e-15
2.77114e-15
-3.10991e-16
1.11692e-15
-7.65862e-18
-6.45245e-18
-1.65956e-18
-3.1489e-18
-5.27906e-20
-1.5042e-18
-9.42171e-22
-6.55115e-20
-1.521e-23
-1.23601e-21
-2.46673e-25
-1.94674e-23
-3.4551e-27
-3.5735e-25
-3.78954e-29
-6.52044e-27
-3.12286e-31
-9.19487e-29
-1.59534e-33
-1.03495e-30
2.13224e-36
-9.83533e-33
1.39478e-37
-7.66363e-35
1.35884e-39
-7.50897e-38
5.50099e-42
1.2175e-39
2.57284e-43
5.44814e-42
8.21644e-43
-2.72646e-15
5.50695e-15
-1.45511e-15
5.72586e-15
-3.22141e-16
9.47275e-16
-1.29732e-16
-8.51767e-16
-3.95851e-17
-1.02207e-16
-1.23936e-18
-4.44869e-17
-1.67898e-20
-2.2557e-18
-1.60534e-22
-3.73188e-20
-1.28348e-24
-4.09243e-22
-1.00676e-26
-3.46449e-24
-8.57756e-29
-2.19419e-26
-6.17534e-31
-1.34565e-28
-2.14083e-33
-1.00645e-30
3.36723e-35
-9.01149e-33
7.41001e-37
-4.56491e-35
6.55491e-39
-1.10042e-38
2.54678e-41
2.97232e-39
1.89012e-42
1.5796e-41
7.61229e-42
-2.34469e-15
7.58358e-15
-2.07388e-15
5.35964e-15
-1.15956e-14
1.10611e-14
-7.01458e-15
-6.47606e-15
-1.04113e-15
-6.26498e-15
-3.0275e-17
-1.33152e-15
-3.97971e-19
-3.77612e-17
-3.95349e-21
-5.25521e-19
-3.39584e-23
-5.41641e-21
-2.04164e-25
-4.66782e-23
-8.27588e-28
-2.83986e-25
-1.18676e-30
2.14588e-27
2.04624e-33
-4.65523e-29
7.05373e-34
-9.32944e-31
3.05864e-36
-9.7573e-33
1.82519e-40
1.86476e-36
6.47361e-41
8.35619e-41
5.88224e-42
1.89168e-41
3.62248e-41
9.357e-06
-2.48904e-05
2.20278e-05
-4.81318e-05
3.3971e-05
-5.39475e-05
4.50784e-05
-5.42229e-05
5.57666e-05
-5.34814e-05
6.63321e-05
-5.30228e-05
7.69435e-05
-5.30533e-05
8.7691e-05
-5.34649e-05
9.86215e-05
-5.40615e-05
0.000109752
-5.45983e-05
0.000121063
-5.47637e-05
0.000132485
-5.41404e-05
0.000143855
-5.21527e-05
0.000154879
-4.80446e-05
0.000165131
-4.09476e-05
0.000174132
-3.00156e-05
0.000181493
-1.45439e-05
0.000187046
6.05979e-06
0.000190965
3.23169e-05
0.000193839
6.47796e-05
0.000196596
0.000103898
0.000202237
0.000148658
0.000207119
0.000234557
9.91482e-06
-3.48053e-05
2.21688e-05
-6.03858e-05
3.34043e-05
-6.51831e-05
4.38928e-05
-6.47113e-05
5.41338e-05
-6.37224e-05
6.43838e-05
-6.32728e-05
7.4759e-05
-6.34285e-05
8.53209e-05
-6.40269e-05
9.61124e-05
-6.4853e-05
0.000107166
-6.56524e-05
0.000118506
-6.61029e-05
0.000130128
-6.57628e-05
0.000141955
-6.39797e-05
0.000153754
-5.98437e-05
0.000165133
-5.23263e-05
0.000175667
-4.05501e-05
0.000185129
-2.40055e-05
0.000193618
-2.42957e-06
0.000201781
2.4154e-05
0.000211142
5.54189e-05
0.000224424
9.06159e-05
0.000244843
0.000128239
0.000174865
0.000277098
1.04093e-05
-4.52146e-05
2.1765e-05
-7.17415e-05
3.19315e-05
-7.53495e-05
4.16334e-05
-7.44132e-05
5.13465e-05
-7.34355e-05
6.12328e-05
-7.31592e-05
7.13379e-05
-7.35335e-05
8.1682e-05
-7.4371e-05
9.22875e-05
-7.54584e-05
0.000103183
-7.65483e-05
0.000114413
-7.73325e-05
0.000126041
-7.7391e-05
0.000138085
-7.60229e-05
0.000150361
-7.21198e-05
0.000162451
-6.44162e-05
0.000173886
-5.19847e-05
0.000184508
-3.46275e-05
0.000194459
-1.23804e-05
0.00020438
1.42332e-05
0.000215606
4.41926e-05
0.000229655
7.6567e-05
0.000247484
0.00011041
0.00014731
0.000275039
1.05984e-05
-5.58129e-05
2.07224e-05
-8.18654e-05
2.97721e-05
-8.4399e-05
3.87296e-05
-8.33705e-05
4.79451e-05
-8.26508e-05
5.74697e-05
-8.26835e-05
6.72806e-05
-8.33441e-05
7.73526e-05
-8.44426e-05
8.76703e-05
-8.57755e-05
9.82232e-05
-8.71004e-05
0.000109029
-8.81369e-05
0.000120198
-8.85592e-05
0.000131862
-8.7684e-05
0.00014388
-8.41375e-05
0.000155737
-7.62696e-05
0.000166832
-6.30762e-05
0.000177165
-4.49596e-05
0.000186876
-2.20911e-05
0.000196592
4.51546e-06
0.000207428
3.33569e-05
0.000220789
6.32062e-05
0.000237832
9.33674e-05
0.000123906
0.000261236
1.00734e-05
-6.58858e-05
1.90633e-05
-9.08528e-05
2.7301e-05
-9.26339e-05
3.57095e-05
-9.17762e-05
4.45219e-05
-9.14605e-05
5.37181e-05
-9.18768e-05
6.32233e-05
-9.28456e-05
7.29616e-05
-9.41754e-05
8.28573e-05
-9.56625e-05
9.28043e-05
-9.70394e-05
0.000102686
-9.80034e-05
0.00011256
-9.84087e-05
0.000122695
-9.77785e-05
0.000133011
-9.4398e-05
0.000142963
-8.61648e-05
0.000151562
-7.1628e-05
0.000158591
-5.04261e-05
0.000160872
-2.35376e-05
0.000166909
-1.48381e-06
0.000178146
1.52764e-05
0.000191617
3.33819e-05
0.000210527
5.56242e-05
9.72533e-05
0.000237181
8.81841e-06
-7.46942e-05
1.74122e-05
-9.94157e-05
2.51858e-05
-0.000100373
3.31282e-05
-9.96852e-05
4.15338e-05
-9.98327e-05
5.03339e-05
-0.000100639
5.93891e-05
-0.000101852
6.85286e-05
-0.000103242
7.75706e-05
-0.000104592
8.63605e-05
-0.000105666
9.47308e-05
-0.000106166
0.000101817
-0.000102921
0.000106791
-9.17134e-05
0.000107987
-7.52129e-05
9.90938e-05
-4.9723e-05
7.13491e-05
-1.208e-05
4.73057e-05
-1.58371e-06
2.78564e-05
-1.79279e-07
1.79282e-05
-1.91704e-08
2.44877e-05
2.89474e-07
4.36868e-05
7.10772e-07
7.47392e-05
9.69051e-07
3.77113e-06
0.000125258
8.89082e-06
-8.34274e-05
1.71251e-05
-0.000106916
2.36949e-05
-0.000105334
3.07442e-05
-0.000104915
3.84543e-05
-0.000105115
4.65353e-05
-0.000104781
5.43252e-05
-0.000101461
6.10196e-05
-9.37051e-05
6.50617e-05
-8.10096e-05
6.38886e-05
-6.35726e-05
5.44523e-05
-4.12391e-05
4.02895e-05
-7.89357e-06
2.98773e-05
-7.29414e-07
1.97214e-05
-6.4089e-08
1.38635e-05
-5.38423e-09
1.78456e-06
-5.70664e-10
2.00996e-07
-7.68508e-11
2.17233e-08
-1.21307e-11
2.51361e-09
-7.30061e-13
2.92772e-07
5.88354e-10
9.84594e-07
2.51348e-08
1.87297e-06
9.08348e-08
2.30921e-07
4.42275e-06
1.22731e-05
-3.94708e-05
1.21104e-05
-3.09096e-05
1.40961e-05
-2.6008e-05
1.74351e-05
-2.47208e-05
2.05333e-05
-2.11423e-05
2.21784e-05
-1.04148e-05
2.15079e-05
-4.35602e-07
1.81875e-05
-2.15383e-08
1.32326e-05
-1.20035e-09
7.47188e-06
-7.44876e-11
6.33694e-06
-5.18443e-12
7.99037e-07
-9.57507e-13
6.96798e-08
-3.12647e-11
5.99189e-09
-3.69471e-10
5.21304e-10
-1.71054e-10
6.96687e-11
-6.61996e-11
1.23204e-11
-1.18323e-11
2.9664e-12
-2.12996e-12
2.40664e-12
-4.95644e-13
5.66183e-10
-2.77473e-13
2.54264e-08
3.37388e-10
1.14817e-07
3.41002e-09
1.2596e-08
3.37413e-07
3.13077e-06
3.08705e-13
4.78593e-07
2.4191e-13
3.2656e-07
2.95615e-11
7.25485e-07
1.94319e-10
7.19872e-07
9.92261e-11
4.5844e-07
3.88661e-11
2.28241e-08
1.28544e-11
1.28184e-09
3.91422e-12
8.0347e-11
1.14539e-12
5.55053e-12
3.08873e-13
3.91951e-13
2.13352e-14
9.54409e-14
-7.94803e-15
3.33545e-12
-2.72668e-11
3.89846e-11
-3.71525e-10
5.07186e-11
-2.11106e-10
1.00236e-11
-7.3069e-11
1.87799e-12
-1.39189e-11
1.91044e-12
-2.5236e-12
2.08669e-12
-6.51024e-13
2.2993e-12
-3.53743e-13
2.98491e-10
-3.9485e-13
3.70742e-09
5.55269e-11
5.36529e-10
1.60578e-08
-7.70515e-14
4.31674e-13
-7.61164e-14
4.10864e-13
-8.33939e-12
5.73091e-11
-5.06891e-11
2.19751e-10
-3.49442e-11
1.31935e-10
-1.6221e-11
5.22427e-11
-6.38461e-12
1.73264e-11
-2.29829e-12
5.20251e-12
-7.7607e-13
1.45672e-12
-2.36821e-13
3.44161e-13
-1.80466e-14
-1.08005e-13
6.21462e-14
-8.47137e-14
8.72857e-11
-1.15579e-10
6.57465e-10
-1.48175e-09
5.62497e-10
-1.7049e-09
1.45778e-11
-3.94283e-10
9.66958e-14
-2.20858e-11
-5.41423e-14
-3.34191e-12
6.97663e-13
-1.15711e-12
1.37631e-12
-4.39758e-13
1.52383e-12
-2.44232e-13
5.64034e-11
-1.67728e-13
4.24143e-12
5.54844e-10
3.44376e-14
2.70334e-14
-6.60378e-14
1.18265e-14
-1.71928e-11
3.73013e-11
-7.68478e-11
1.21551e-10
-5.45698e-11
6.97128e-11
-2.50228e-11
2.64358e-11
-9.28801e-12
8.32036e-12
-3.07695e-12
2.35312e-12
-9.38734e-13
5.84719e-13
-2.39034e-13
4.83039e-14
1.18661e-13
-4.65703e-13
7.19449e-13
-6.75481e-13
5.27203e-10
-1.03073e-09
1.65544e-09
-1.95073e-09
1.65533e-09
-1.34292e-09
1.26973e-11
-1.94484e-10
-2.40205e-12
-1.10707e-11
-4.35612e-13
-2.63136e-12
7.28744e-13
-9.72557e-13
5.91146e-13
-2.38016e-13
8.30491e-13
-1.90424e-13
1.25825e-12
-3.34292e-13
-3.18262e-13
6.11663e-12
9.77772e-16
6.29324e-17
-1.34001e-15
1.98032e-16
-9.64315e-12
1.56472e-15
-3.90376e-11
2.63578e-13
-2.57277e-11
4.10205e-13
-1.0981e-11
3.63164e-13
-3.79819e-12
2.26212e-13
-1.16016e-12
7.53869e-14
-3.07404e-13
-4.53529e-14
-2.67864e-14
-1.42851e-13
1.18884e-12
-2.47151e-12
4.94885e-12
-4.39825e-12
8.20649e-10
-1.31391e-09
1.29282e-09
-1.76365e-09
3.25725e-10
-8.09383e-10
8.37749e-12
-1.66977e-11
-1.6479e-12
-1.16907e-12
4.81039e-13
-2.01569e-13
2.39959e-13
-2.10776e-13
2.41819e-13
-1.73644e-13
4.74081e-13
-1.84421e-13
1.44317e-12
-4.22799e-13
-7.02489e-13
2.59715e-12
-6.042e-19
4.15704e-17
-2.00605e-17
1.96102e-16
-2.99174e-16
1.87844e-15
-6.48786e-14
1.44126e-13
-1.1691e-13
2.47212e-13
-1.15326e-13
2.11726e-13
-7.80169e-14
1.12583e-13
-2.76899e-14
-1.32139e-14
5.96377e-14
-1.5995e-13
6.72499e-13
-7.55712e-13
6.13387e-12
-1.08264e-11
3.03364e-11
-2.83853e-11
6.29253e-10
-7.67973e-12
5.78109e-10
-1.05325e-09
1.70825e-11
-4.82572e-11
1.20997e-12
-6.66665e-13
1.50301e-13
-9.31765e-14
3.56905e-14
-7.32144e-14
8.59404e-14
-1.38581e-13
1.37975e-13
-1.48878e-13
3.16715e-13
-1.45096e-13
1.59746e-12
-9.59024e-13
-8.62244e-12
4.8709e-12
-1.00057e-18
2.49842e-17
-1.4763e-17
1.70038e-16
-2.36923e-16
1.89217e-15
-2.36716e-14
5.43162e-14
-4.75127e-14
1.17385e-13
-4.51852e-14
9.50272e-14
-2.57861e-14
3.43538e-14
2.94927e-14
-6.84928e-14
2.50789e-13
-5.8075e-13
1.86871e-12
-1.768e-12
2.89459e-12
-8.90532e-12
7.48947e-12
-8.83606e-12
2.55905e-13
-4.90838e-13
3.75738e-11
-1.09792e-13
5.56548e-13
-1.12788e-13
1.77715e-14
-1.40805e-13
9.76051e-15
-6.87819e-14
9.70954e-15
-5.91079e-14
2.49569e-14
-7.55119e-14
3.92436e-14
-9.67235e-14
1.77596e-13
-1.34107e-13
4.9049e-13
-5.41774e-13
-2.53534e-12
1.07207e-11
-4.27415e-19
1.37249e-17
-7.08267e-18
1.32738e-16
-1.29295e-16
1.54838e-15
-4.8793e-15
1.68363e-14
-1.23666e-14
4.51595e-14
-1.09618e-14
3.14523e-14
-4.12446e-15
-8.64392e-16
4.22823e-14
-2.08631e-13
1.80314e-13
-6.93294e-13
3.83816e-13
-9.87885e-13
4.34312e-13
-2.17907e-13
4.54159e-13
-6.2235e-14
3.00219e-15
-4.62539e-14
-5.46047e-16
-1.32294e-13
-5.01159e-15
-1.32659e-13
-7.24265e-15
-8.82707e-14
-8.25859e-15
-5.29765e-14
-1.00633e-14
-4.37362e-14
-1.00165e-14
-4.31898e-14
-8.78305e-15
-5.12583e-14
-3.68364e-15
-8.54104e-14
-2.803e-14
-5.37938e-13
-8.84527e-12
1.2777e-14
-4.83334e-20
7.03758e-18
-1.34497e-18
8.95073e-17
-2.94603e-17
9.47966e-16
-4.35043e-16
6.0131e-15
-1.31171e-15
1.22494e-14
-8.79807e-16
5.74758e-15
9.54378e-16
-9.48077e-15
2.39143e-15
-2.16724e-13
-3.44741e-15
-5.08398e-13
-2.31813e-15
-3.98268e-13
-2.81882e-15
-2.24629e-13
-4.46484e-15
-6.74274e-14
-9.80972e-15
-4.78065e-14
-2.08561e-14
-8.96237e-14
-2.40819e-14
-8.43729e-14
-1.67196e-14
-5.04266e-14
-1.42324e-14
-2.67957e-14
-1.31987e-14
-2.38065e-14
-1.41501e-14
-2.34949e-14
-1.49738e-14
-3.01197e-14
4.01857e-14
-6.99509e-14
6.8957e-13
-5.5881e-13
-6.20622e-12
9.59416e-13
9.1124e-19
2.42329e-18
1.62842e-17
3.17338e-17
1.34091e-16
2.55958e-16
3.44773e-16
1.04323e-15
2.08947e-16
1.55387e-15
-4.84886e-16
-9.17922e-17
-5.10763e-15
-6.82863e-15
-4.18266e-14
-1.56142e-13
-4.37972e-14
-5.09139e-13
-4.57397e-14
-4.91914e-13
-1.05647e-14
-3.68545e-13
-1.14684e-14
-5.42618e-14
-2.77372e-14
-1.64384e-14
-3.43298e-14
-3.76707e-14
-2.22069e-14
-3.7635e-14
-1.11986e-14
-1.71388e-14
-1.04447e-14
-9.28661e-15
-1.07915e-14
-8.43387e-15
-1.1774e-14
-9.06886e-15
-1.36178e-14
-1.49727e-14
5.42952e-14
-6.93789e-14
6.10088e-13
-6.69718e-13
-6.59857e-12
7.60192e-12
6.85696e-19
2.35997e-19
1.02483e-17
1.53006e-18
5.90989e-17
5.81808e-18
1.14001e-16
1.22753e-17
-7.32803e-18
3.74353e-18
-1.9346e-16
-5.70638e-17
-3.65339e-15
-1.70505e-15
-5.46663e-14
-6.85231e-14
-1.04291e-13
-3.6419e-13
-9.86645e-14
-4.12742e-13
-3.78772e-14
-3.44052e-13
-4.37945e-15
-4.1061e-14
-9.34251e-15
-8.75129e-16
-1.23532e-14
-5.28309e-15
-9.10454e-15
-6.13756e-15
-4.58944e-15
-4.07804e-15
-4.21773e-15
-1.87876e-15
-4.47907e-15
-1.68231e-15
-5.4484e-15
-2.4108e-15
-7.53377e-15
-7.51125e-15
1.68006e-14
-5.7596e-14
1.21883e-13
-5.6697e-13
-5.40132e-12
1.40736e-12
4.7231e-20
9.56039e-22
3.4152e-19
9.89145e-21
1.04035e-18
3.77483e-20
4.14504e-19
2.98437e-20
-5.78602e-18
-1.86683e-19
-4.93526e-17
-1.34996e-17
-1.37765e-15
-2.51497e-16
-3.27677e-14
-1.20479e-14
-1.18688e-13
-1.02641e-13
-1.27931e-13
-2.02813e-13
-2.96209e-14
-9.69155e-14
-6.74766e-16
-1.42074e-14
-1.29587e-15
-3.65544e-16
-2.29988e-15
-3.1773e-16
-2.23694e-15
-4.803e-16
-1.03148e-15
-3.96704e-16
-9.31503e-16
-2.09421e-16
-1.04959e-15
-1.99372e-16
-1.89412e-15
-5.31454e-16
-4.964e-15
-3.25088e-15
-2.92546e-14
-2.69206e-14
-3.25647e-13
-2.53209e-13
-2.30318e-12
-3.2428e-12
3.77429e-22
5.044e-22
2.77701e-21
6.1349e-21
3.20348e-21
3.26124e-20
-2.62894e-20
9.08833e-20
-3.17646e-19
1.04674e-19
-8.79305e-18
-2.14981e-19
-2.50451e-16
-6.38487e-18
-7.83344e-15
-2.10472e-16
-3.52045e-14
-1.60535e-15
-2.97029e-14
-5.29217e-15
-8.12002e-15
-7.62673e-15
-3.57241e-16
-2.29621e-15
-1.15167e-16
-4.20539e-16
-2.03617e-16
-1.12825e-17
-2.10107e-16
-1.96351e-17
-1.22282e-16
-1.80737e-17
-1.15221e-16
-1.3002e-17
-1.54755e-16
-1.84326e-17
-6.32901e-16
-9.83954e-17
-3.69078e-15
-8.33531e-16
-2.86632e-14
-6.70069e-15
-2.55351e-13
-5.89293e-14
-5.32214e-13
-2.25203e-12
2.67891e-22
1.44614e-22
2.77302e-21
2.07902e-21
1.13631e-20
1.42578e-20
1.7289e-20
6.10517e-20
-2.18535e-20
1.7862e-19
-7.01603e-19
3.64141e-19
-1.61311e-17
4.96929e-19
-4.34337e-17
4.39424e-19
-1.1389e-16
2.47346e-19
-1.62644e-15
4.19061e-20
-1.02497e-15
-1.51015e-19
-4.63655e-16
-1.04797e-19
-4.69107e-18
-2.22614e-19
-9.15757e-18
-5.70197e-19
-9.60154e-18
-5.55302e-19
-7.80746e-18
-4.73266e-19
-8.45176e-18
-5.49068e-19
-1.9235e-17
-1.78402e-18
-1.58643e-16
-1.39811e-17
-1.2175e-15
-1.28727e-16
-7.01627e-15
-1.11535e-15
-7.50639e-14
-9.05301e-15
-7.72761e-14
-7.0246e-13
9.8864e-23
3.61337e-25
1.33205e-21
2.73778e-24
8.44477e-21
6.3404e-24
3.27952e-20
-3.80028e-24
8.39971e-20
-1.5201e-22
1.39621e-19
-4.90287e-21
1.47653e-19
-5.49689e-20
9.8309e-20
-1.56805e-19
1.95707e-20
-2.10176e-19
-9.03613e-21
-2.022e-19
-1.15419e-20
-1.4851e-19
-7.30717e-20
-3.45001e-20
-2.407e-19
-1.49412e-20
-2.78718e-19
-1.30485e-20
-2.6888e-19
-1.34173e-20
-2.84895e-19
-1.30917e-20
-4.53729e-19
-2.56539e-20
-2.33803e-18
-1.60634e-19
-2.25486e-17
-1.43347e-18
-2.44858e-16
-1.33345e-17
-2.13017e-15
-1.17719e-16
-1.02189e-14
-9.61291e-16
-7.59043e-15
-1.01336e-13
1.36859e-25
3.4071e-28
6.28227e-25
1.74457e-27
-5.61114e-25
2.15566e-27
-4.35783e-24
-3.57195e-27
-1.56224e-22
-1.43815e-25
-6.16643e-21
-2.38943e-24
-4.27139e-20
-9.32288e-23
-8.88371e-20
-1.72584e-21
-1.01197e-19
-7.60495e-21
-8.60999e-20
-7.07539e-21
-3.67304e-20
-1.89872e-21
-6.65697e-21
-6.58055e-22
-6.02706e-21
-4.21297e-22
-6.8487e-21
-3.45699e-22
-7.33339e-21
-3.19334e-22
-8.94924e-21
-4.01086e-22
-2.81784e-20
-1.50253e-21
-2.34839e-19
-1.25646e-20
-2.44052e-18
-1.19973e-19
-2.5596e-17
-1.13054e-18
-2.61366e-16
-9.93752e-18
-4.01942e-15
-7.93282e-17
-6.17005e-16
-2.7211e-14
8.92896e-29
-1.17146e-35
2.2062e-28
-1.96542e-33
-3.04352e-28
-1.60599e-31
-3.86107e-27
-1.52265e-29
-1.47407e-25
-6.64496e-28
-2.54061e-24
-1.36096e-26
-8.21381e-23
-5.82469e-25
-9.88468e-22
-7.08163e-24
-3.71578e-21
-2.47709e-23
-9.17389e-22
-4.22472e-23
-3.02922e-22
-4.71633e-23
-1.93101e-22
-3.86333e-23
-1.66975e-22
-1.67193e-23
-1.71804e-22
-1.00894e-23
-1.86629e-22
-8.49907e-24
-3.28491e-22
-1.2663e-23
-1.90687e-21
-6.8577e-23
-1.94401e-20
-6.49416e-22
-2.13713e-19
-6.44197e-21
-2.29777e-18
-6.15315e-20
-2.36236e-17
-5.42712e-19
-2.98362e-16
-4.26682e-18
-3.16073e-17
-4.3511e-15
-1.16469e-35
-6.77061e-38
-1.965e-33
-1.20664e-35
-1.61524e-31
-1.04183e-33
-1.65077e-29
-4.16049e-32
-7.24504e-28
-1.73665e-30
-1.417e-26
-4.40367e-29
-4.39658e-25
-1.32977e-27
-3.56349e-24
-5.02355e-26
-9.94025e-24
-4.48907e-25
-1.52035e-23
-1.31489e-24
-1.61036e-23
-1.97394e-24
-9.31453e-24
-2.04567e-24
-5.30208e-24
-1.18552e-24
-4.71851e-24
-3.62024e-25
-5.14114e-24
-2.28402e-25
-1.16973e-23
-3.72976e-25
-9.20684e-23
-2.44828e-24
-1.03169e-21
-2.52684e-23
-1.18161e-20
-2.61817e-22
-1.30912e-19
-2.56346e-21
-1.37849e-18
-2.29851e-20
-1.77365e-17
-1.80757e-19
-1.27001e-18
-3.02171e-16
-6.74466e-38
-1.70892e-40
-1.20961e-35
-3.61516e-38
-1.05113e-33
-3.67572e-36
-4.27859e-32
-1.76476e-34
-1.76822e-30
-7.8971e-33
-4.54914e-29
-2.14465e-31
-1.35574e-27
-6.62292e-30
-3.94926e-26
-2.58842e-28
-2.48367e-25
-3.59731e-27
-5.81842e-25
-1.41881e-26
-7.6512e-25
-2.54743e-26
-6.76508e-25
-2.88897e-26
-2.26219e-25
-2.42579e-26
-1.27246e-25
-1.00722e-26
-1.39789e-25
-6.12988e-27
-3.63817e-25
-1.00605e-26
-3.38112e-24
-7.43574e-26
-4.10093e-23
-8.30823e-25
-4.93267e-22
-9.08368e-24
-5.69541e-21
-9.26055e-23
-6.22872e-20
-8.58262e-22
-8.37733e-19
-6.88267e-21
-4.65968e-20
-1.55892e-17
-1.87366e-40
-7.9995e-44
-3.93741e-38
-1.66017e-41
-3.97848e-36
-1.6499e-39
-1.80296e-34
-1.05724e-37
-8.09257e-33
-5.14815e-36
-2.22577e-31
-1.58256e-34
-6.88725e-30
-5.04893e-33
-2.35697e-28
-1.45385e-31
-2.26444e-27
-5.39614e-30
-6.85001e-27
-5.52108e-29
-1.05009e-26
-1.93206e-28
-1.10409e-26
-3.354e-28
-6.17512e-27
-3.77133e-28
-3.45978e-27
-3.16371e-28
-3.62786e-27
-1.53678e-28
-9.96445e-27
-2.24812e-28
-1.03881e-25
-1.94899e-27
-1.36279e-24
-2.34764e-26
-1.74128e-23
-2.7237e-25
-2.12461e-22
-2.92942e-24
-2.45424e-21
-2.84769e-23
-3.51576e-20
-2.36928e-22
-1.57377e-21
-7.21386e-19
-7.98863e-44
-6.81443e-47
-1.66581e-41
-1.54884e-44
-1.66412e-39
-1.68026e-42
-1.10011e-37
-1.04068e-40
-5.3637e-36
-5.36761e-39
-1.63348e-34
-1.95183e-37
-5.20219e-33
-6.70138e-36
-1.50836e-31
-1.99166e-34
-4.70759e-30
-6.26345e-33
-3.61119e-29
-1.76563e-31
-1.0213e-28
-1.3143e-30
-1.54393e-28
-3.61314e-30
-1.61089e-28
-5.29477e-30
-9.19957e-29
-5.44361e-30
-7.82314e-29
-3.90651e-30
-2.28059e-28
-4.7461e-30
-2.71208e-27
-4.38587e-29
-3.83656e-26
-5.69585e-28
-5.2465e-25
-7.06504e-27
-6.83984e-24
-8.09731e-26
-8.45644e-23
-8.35544e-25
-1.31525e-21
-7.31526e-24
-4.87285e-23
-3.00961e-20
-6.81248e-47
-1.26357e-50
-1.55592e-44
-3.26852e-48
-1.69733e-42
-4.012e-46
-1.06157e-40
-2.81237e-44
-5.47162e-39
-1.60225e-42
-2.00585e-37
-6.38905e-41
-6.89883e-36
-2.38767e-39
-2.06518e-34
-7.68603e-38
-7.00582e-33
-2.17634e-36
-1.56443e-31
-6.59546e-35
-8.61211e-31
-1.81688e-33
-1.9123e-30
-1.4749e-32
-2.47291e-30
-4.33356e-32
-2.22384e-30
-6.54587e-32
-1.74074e-30
-7.11176e-32
-4.68746e-30
-1.0085e-31
-5.99529e-29
-8.35539e-31
-9.16467e-28
-1.17414e-29
-1.35011e-26
-1.56957e-28
-1.89621e-25
-1.93467e-27
-2.53139e-24
-2.14131e-26
-4.36886e-23
-1.99705e-25
-1.36355e-24
-1.12133e-21
-1.29804e-50
-5.06492e-54
-3.35426e-48
-1.41372e-51
-4.11583e-46
-1.86869e-49
-2.85144e-44
-1.59912e-47
-1.63045e-42
-1.00519e-45
-6.5496e-41
-4.50443e-44
-2.45081e-39
-1.85561e-42
-7.9233e-38
-6.56296e-41
-2.25876e-36
-2.0316e-39
-7.47566e-35
-5.68791e-38
-1.81099e-33
-1.98995e-36
-1.09954e-32
-3.80863e-35
-2.48544e-32
-2.1623e-34
-3.25422e-32
-4.85781e-34
-3.50669e-32
-6.68633e-34
-8.93317e-32
-1.37758e-33
-1.10867e-30
-1.33911e-32
-1.83973e-29
-2.03731e-31
-2.93937e-28
-2.95866e-30
-4.48029e-27
-3.95908e-29
-6.50454e-26
-4.74949e-28
-1.2624e-24
-4.77733e-27
-3.40773e-26
-3.67514e-23
-5.06414e-54
-5.65623e-58
-1.41855e-51
-1.77144e-55
-1.88256e-49
-2.61189e-53
-1.61932e-47
-2.34231e-51
-1.02261e-45
-1.62565e-49
-4.60574e-44
-8.47362e-48
-1.90126e-42
-3.86547e-46
-6.75158e-41
-1.51427e-44
-2.09863e-39
-5.18797e-43
-5.98131e-38
-1.58351e-41
-2.37284e-36
-4.42413e-40
-3.6642e-35
-1.5371e-38
-1.46038e-34
-3.12831e-37
-2.52429e-34
-1.91471e-36
-3.54534e-34
-4.99758e-36
-1.20315e-33
-1.56332e-35
-1.70156e-32
-1.79301e-34
-3.07475e-31
-2.96368e-33
-5.36594e-30
-4.71586e-32
-8.94535e-29
-6.91581e-31
-1.42431e-27
-9.0889e-30
-3.13963e-26
-9.99717e-29
-7.5748e-28
-1.04452e-24
-5.65469e-58
-1.23583e-61
-1.7768e-55
-4.45052e-59
-2.62943e-53
-7.4477e-57
-2.36671e-51
-7.54352e-55
-1.64871e-49
-5.90637e-53
-8.63582e-48
-3.44911e-51
-3.95024e-46
-1.76036e-49
-1.55313e-44
-7.71045e-48
-5.34101e-43
-2.95272e-46
-1.63619e-41
-1.00673e-44
-4.66295e-40
-3.10281e-43
-1.94705e-38
-9.18878e-42
-3.10655e-37
-3.43066e-40
-1.22937e-36
-4.65749e-39
-2.71052e-36
-2.34159e-38
-1.33661e-35
-1.31249e-37
-2.15435e-34
-1.9572e-36
-4.26125e-33
-3.62137e-35
-8.18441e-32
-6.37898e-34
-1.50408e-30
-1.03552e-32
-2.65425e-29
-1.50746e-31
-6.74365e-28
-1.84226e-30
-1.50538e-29
-2.55752e-26
-1.23743e-61
-1.10222e-65
-4.46133e-59
-4.54393e-63
-7.4808e-57
-8.54704e-61
-7.61912e-55
-1.0312e-58
-5.98626e-53
-9.08425e-57
-3.50716e-51
-6.01974e-55
-1.79587e-49
-3.47569e-53
-7.89237e-48
-1.71876e-51
-3.03275e-46
-7.4304e-50
-1.03749e-44
-2.85856e-48
-3.20818e-43
-9.92551e-47
-9.842e-42
-3.14757e-45
-3.86217e-40
-9.32701e-44
-3.48036e-39
-3.0261e-42
-1.33908e-38
-5.91138e-41
-1.12656e-37
-9.09811e-40
-2.2229e-36
-1.78624e-38
-4.90558e-35
-3.7236e-37
-1.04619e-33
-7.34185e-36
-2.13693e-32
-1.33395e-34
-4.23305e-31
-2.1762e-33
-1.25008e-29
-3.00804e-32
-2.68324e-31
-5.46041e-28
-1.10363e-65
-5.73838e-69
-4.5618e-63
-2.77185e-66
-8.60753e-61
-5.94195e-64
-1.02584e-58
-7.85419e-62
-9.05151e-57
-7.85406e-60
-6.12823e-55
-6.13259e-58
-3.55022e-53
-4.04548e-56
-1.76216e-51
-2.2874e-54
-7.64785e-50
-1.13089e-52
-2.95435e-48
-4.9736e-51
-1.03044e-46
-1.97267e-49
-3.28059e-45
-7.13565e-48
-8.93202e-44
-2.37633e-46
-2.63045e-42
-7.38028e-45
-4.20536e-41
-2.15252e-43
-7.80779e-40
-5.43878e-42
-1.8901e-38
-1.33423e-40
-4.69248e-37
-3.1665e-39
-1.12251e-35
-7.0799e-38
-2.57218e-34
-1.45802e-36
-5.80385e-33
-2.69944e-35
-2.02725e-31
-4.30599e-34
-4.23569e-33
-1.01969e-29
-5.74813e-69
-3.1126e-72
-2.78018e-66
-1.75328e-69
-5.96641e-64
-4.26815e-67
-7.88955e-62
-6.41979e-65
-7.95899e-60
-7.43745e-63
-6.23536e-58
-6.71438e-61
-4.12837e-56
-5.14091e-59
-2.34286e-54
-3.37852e-57
-1.1629e-52
-1.94229e-55
-5.13643e-51
-9.92909e-54
-2.04697e-49
-4.57345e-52
-7.44488e-48
-1.91887e-50
-2.49123e-46
-7.39997e-49
-7.09736e-45
-2.64244e-47
-1.52626e-43
-8.78846e-46
-4.47907e-42
-2.7335e-44
-1.39313e-40
-7.96591e-43
-3.65915e-39
-2.177e-41
-9.93899e-38
-5.59193e-40
-2.58355e-36
-1.32511e-38
-6.7522e-35
-2.8242e-37
-2.89531e-33
-5.27873e-36
-5.88105e-35
-1.64715e-31
-2.96386e-72
-1.11259e-75
-1.67819e-69
-6.95661e-73
-4.1103e-67
-1.89404e-70
-6.47378e-65
-3.42763e-68
-7.47607e-63
-4.597e-66
-6.79907e-61
-4.91354e-64
-5.22804e-59
-4.46787e-62
-3.44642e-57
-3.49031e-60
-1.98799e-55
-2.38676e-58
-1.02002e-53
-1.45055e-56
-4.71772e-52
-7.93391e-55
-1.9887e-50
-3.94692e-53
-7.71133e-49
-1.80172e-51
-2.77167e-47
-7.60212e-50
-9.28234e-46
-2.98196e-48
-2.90463e-44
-1.09196e-46
-8.58588e-43
-3.74178e-45
-2.39187e-41
-1.1999e-43
-7.0836e-40
-3.593e-42
-2.11986e-38
-9.98559e-41
-6.48916e-37
-2.49673e-39
-3.68556e-35
-5.6227e-38
-7.11293e-37
-2.29731e-33
-1.11351e-75
-2.38427e-79
-6.97347e-73
-1.44569e-76
-1.9027e-70