/*--------------------------------*- C++ -*----------------------------------*\
| =========                 |                                                 |
| \\      /  F ield         | OpenFOAM: The Open Source CFD Toolbox           |
|  \\    /   O peration     | Version:  v2012                                 |
|   \\  /    A nd           | Website:  www.openfoam.com                      |
|    \\/     M anipulation  |                                                 |
\*---------------------------------------------------------------------------*/
FoamFile
{
    version     2.0;
    format      ascii;
    class       volScalarField;
    location    "0.25";
    object      alpha.water;
}
// * * * * * * * * * * * * * * * * * * * * * * * * * * * * * * * * * * * * * //

dimensions      [0 0 0 0 0 0 0];


internalField   nonuniform List<scalar> 
2268
(
1
1
1
1
1
1
1
1
1
1
1
1
1
1
1
1
1
1
1
1
1
0.946613
0.886756
1
1
1
1
1
1
1
1
1
1
1
1
1
1
1
1
1
1
1
1
1
0.996011
0.924159
1
1
1
1
1
1
1
1
1
1
1
1
1
1
1
1
1
1
1
1
1
1
0.948994
1
1
1
1
1
1
1
1
1
1
1
1
1
1
1
1
1
1
1
1
1
1
0.953264
1
1
1
1
1
1
1
1
1
1
1
1
1
1
1
1
1
1
1
1
1
1
0.953907
1
1
1
1
1
1
1
1
1
1
1
1
1
1
1
1
1
1
1
1
1
1
0.956092
1
1
1
1
1
1
1
1
1
1
1
1
1
1
1
1
1
1
1
1
1
1
0.986343
1
1
1
1
1
1
1
1
1
1
1
1
1
1
1
1
1
1
1
1
1
1
1.00002
3.01052e-17
2.05187e-17
4.42139e-18
1.89114e-19
1.37712e-21
5.01378e-23
1.30382e-23
1.97817e-24
1.80198e-25
1.18417e-26
5.98136e-28
2.40742e-29
7.7427e-31
1.93645e-32
3.6168e-34
4.71577e-36
3.76521e-38
1.29046e-40
4.82637e-41
2.52998e-16
3.80906e-16
3.3956e-16
7.67247e-17
1.02486e-17
1.42439e-19
2.60607e-21
1.26159e-22
7.73255e-24
4.01603e-25
1.72086e-26
6.01511e-28
1.68797e-29
3.66767e-31
5.88051e-33
6.36258e-35
4.04699e-37
1.06122e-39
5.49936e-41
4.96067e-15
2.68212e-14
5.03144e-14
5.13262e-14
2.4243e-15
2.05713e-17
3.13957e-19
9.13602e-21
2.79043e-22
8.85802e-24
2.79146e-25
7.85979e-27
1.84694e-28
3.42221e-30
4.69245e-32
4.34144e-34
2.65761e-36
9.89752e-39
8.53998e-40
1.28362e-13
7.64678e-13
1.44623e-12
1.02545e-12
2.57728e-14
3.288e-16
9.62205e-18
4.62809e-19
1.15948e-20
2.33472e-22
4.62459e-24
9.23217e-26
1.67272e-27
2.52777e-29
3.00451e-31
2.86741e-33
2.04725e-35
8.31925e-38
1.20517e-38
2.25562e-12
1.51334e-11
2.81834e-11
1.64028e-12
6.12884e-14
2.47514e-15
1.1145e-16
6.19046e-18
1.7808e-19
3.98503e-21
7.26381e-23
1.18342e-24
1.77192e-26
2.28281e-28
2.54302e-30
2.35795e-32
1.66324e-34
6.37951e-37
1.28295e-37
1.45573e-11
7.82504e-11
7.76239e-11
8.6411e-12
1.04912e-13
2.36371e-14
7.25823e-16
2.44017e-17
7.59836e-19
2.0861e-20
4.64751e-22
8.46052e-24
1.33798e-25
1.88591e-27
2.24836e-29
2.1178e-31
1.4635e-33
5.08946e-36
1.20572e-36
7.81121e-11
1.43587e-10
6.3161e-11
6.88976e-12
3.37248e-13
1.47011e-13
5.77253e-15
9.79173e-17
1.81739e-18
4.04737e-20
9.52608e-22
1.95529e-23
3.29533e-25
5.17384e-27
6.87078e-29
7.10454e-31
5.0443e-33
1.81291e-35
7.42958e-36
7.71624e-11
8.25991e-11
5.45452e-11
1.04018e-11
6.35136e-12
1.20276e-12
2.01237e-14
3.15478e-16
3.46924e-18
2.92807e-20
1.94881e-22
1.02793e-23
5.44776e-25
6.12456e-27
2.11652e-29
1.23655e-34
2.60631e-35
1.8766e-35
2.32094e-35
1
1
1
1
1
1
1
1
1
1
1
1
1
1
1
1
1
1
1
1
1
1
1.00001
1
1
1
1
1
1
1
1
1
1
1
1
1
1
1
1
1
1
1
1
1
1
1
1
1
1
1
1
1
1
1
1
1
0.999999
0.999999
0.999999
0.999999
0.999999
1
1
1
1
1
1
1
1
1
0.999999
0.999999
0.999999
0.999999
0.999999
0.999998
0.999998
0.999997
0.999995
0.999992
0.999988
0.999982
0.99998
0.999992
0.999984
0.999983
0.99999
0.999988
1
1
1
0.999999
0.999997
0.999985
0.999982
0.999983
0.999982
0.999981
0.999978
0.999971
0.999957
0.999939
0.999902
0.999838
0.999752
0.999643
0.999537
0.999369
0.995217
0.967192
0.939543
0.948254
0.957251
0.989308
0.999999
0.999947
0.999812
0.99979
0.999792
0.999788
0.99977
0.999728
0.999643
0.999473
0.999175
0.998648
0.995435
0.978608
0.94704
0.881399
0.703619
0.510107
0.335465
0.117853
0.126811
0.17639
0.261642
0.425864
0.9992
0.997495
0.996413
0.996184
0.995466
0.993592
0.986698
0.970061
0.93462
0.868366
0.74372
0.553493
0.39522
0.277105
0.140173
2.14987e-07
5.55371e-08
5.96427e-09
-7.49159e-08
6.57897e-07
6.24536e-05
0.000283449
0.00191133
0.772038
0.61476
0.579795
0.574748
0.558822
0.519333
0.454616
0.365013
0.260393
0.153722
0.0485815
-9.48899e-10
1.51337e-08
2.07453e-07
2.85796e-07
5.10109e-08
1.73961e-08
1.18991e-08
1.06095e-08
-1.73194e-08
-2.68668e-06
1.92057e-06
1.6328e-05
0.0662651
0.0177573
0.00332902
0.00125064
-1.65982e-08
-3.39233e-11
-1.20573e-14
-5.11597e-18
-2.1684e-21
-2.91759e-16
-4.9864e-11
2.79707e-11
4.77799e-10
1.56172e-08
1.65614e-07
7.54749e-08
2.4264e-08
1.05884e-08
9.50213e-09
8.92426e-09
-1.01141e-08
-2.61108e-08
-1.79384e-08
-2.17222e-09
-2.41822e-09
-2.70431e-07
-1.39626e-06
-8.0815e-07
-3.10002e-07
-1.0097e-07
-3.04289e-08
-8.79936e-09
-2.35217e-09
-1.61195e-10
-5.89164e-12
-1.16815e-09
2.80952e-06
5.49445e-06
2.74096e-06
5.48465e-08
1.30156e-08
9.64146e-09
7.46337e-09
5.10375e-09
-1.2606e-09
-3.02886e-08
-2.43078e-09
-4.27801e-09
-5.3869e-07
-1.78185e-06
-1.0117e-06
-3.88539e-07
-1.25357e-07
-3.69149e-08
-1.01988e-08
-2.39332e-09
-5.1084e-14
2.80022e-11
1.43941e-06
1.4754e-05
1.45989e-05
4.05107e-06
3.30333e-08
1.96174e-08
1.59709e-08
8.02385e-09
4.34886e-09
4.81464e-09
5.12546e-09
-1.59454e-10
-9.89443e-11
-3.03595e-07
-9.03462e-07
-4.93645e-07
-1.82414e-07
-5.6254e-08
-1.56674e-08
-3.85892e-09
-3.1856e-10
1.31597e-09
3.62305e-10
1.00766e-05
1.4754e-05
1.18619e-05
4.97501e-07
2.55799e-09
1.13224e-08
5.91616e-09
2.01888e-09
2.49168e-09
5.4995e-09
5.58945e-09
-3.94177e-13
-1.3853e-12
-1.10906e-11
-1.80551e-09
-2.73234e-09
-2.37357e-09
-1.45729e-09
-4.81021e-10
3.3746e-11
-1.32349e-25
5.88091e-08
2.71797e-09
5.13641e-06
1.4754e-05
1.05645e-06
1.04491e-09
6.60417e-10
6.36639e-10
1.23136e-09
1.72967e-09
1.85424e-09
6.67661e-09
2.08047e-08
-2.579e-13
-1.25787e-12
-1.2231e-11
-9.30184e-10
-1.57477e-09
-1.33326e-09
-7.02875e-10
0
2.21935e-09
5.3681e-09
8.69787e-08
1.92466e-07
5.62505e-10
1.11981e-06
1.93166e-09
5.61349e-10
6.39966e-10
6.2975e-10
1.38535e-09
1.37942e-09
1.25379e-09
9.37532e-09
7.3261e-08
-1.51357e-13
-1.03835e-12
-1.1737e-11
-3.37323e-10
-7.25912e-10
-5.847e-10
-2.10797e-10
7.54641e-10
4.14238e-09
1.19846e-08
2.00671e-08
6.16639e-08
3.23493e-10
3.90884e-10
4.30235e-10
8.11935e-10
6.92461e-10
6.37749e-10
7.1614e-10
7.28363e-10
1.06663e-09
2.68662e-09
1.80392e-08
-8.17486e-14
-7.91264e-13
-9.36092e-12
-1.02367e-10
-2.74898e-10
-1.91508e-10
3.65851e-12
1.34642e-09
4.34494e-09
3.37534e-09
3.19797e-10
3.23402e-10
3.20996e-10
6.15717e-10
8.4959e-10
8.56242e-10
4.39157e-10
3.71066e-10
3.42054e-10
3.8276e-10
4.8745e-10
1.40738e-09
8.4554e-09
-4.17703e-14
-5.30058e-13
-5.68133e-12
-3.63169e-11
-7.43295e-11
-3.50213e-11
5.45801e-11
1.36316e-09
3.34877e-09
2.05002e-09
1.56718e-09
3.20033e-10
3.82621e-10
7.93225e-10
8.25001e-10
3.44501e-10
2.02801e-10
1.90298e-10
1.86692e-10
2.12865e-10
3.26713e-10
1.29956e-09
1.13695e-08
-1.45313e-14
-1.89212e-13
-1.54164e-12
-6.33694e-12
-9.50532e-12
-2.72727e-18
2.30817e-11
6.84666e-10
2.76239e-09
3.35059e-09
2.84276e-09
4.07694e-10
7.23717e-11
1.92345e-10
2.14346e-10
1.13368e-10
6.55899e-11
6.09575e-11
6.41521e-11
7.95653e-11
2.01502e-10
1.06192e-09
1.10604e-08
-1.4466e-15
-9.29042e-15
-3.56169e-14
-7.57926e-14
-2.33139e-14
-1.14999e-17
2.74044e-12
2.57626e-10
1.65249e-09
3.05917e-09
1.873e-09
2.31591e-10
4.82828e-12
2.54057e-11
3.325e-11
2.58294e-11
1.25472e-11
1.13216e-11
1.43213e-11
2.47456e-11
1.15692e-10
6.81112e-10
6.85114e-09
-6.04875e-18
-6.17494e-17
-2.37091e-16
-1.88996e-16
1.26218e-31
-4.58808e-15
1.77236e-13
3.69857e-11
3.30474e-10
6.7653e-10
3.46935e-10
6.87937e-11
3.2526e-12
1.55467e-12
2.62888e-12
2.40979e-12
1.36509e-12
1.21753e-12
2.3846e-12
9.59792e-12
4.21841e-11
2.72895e-10
2.38595e-09
-3.31966e-18
-3.96859e-17
-2.118e-16
-5.94809e-16
-6.92258e-16
-3.05716e-17
1.74244e-14
5.73779e-13
9.41944e-13
3.05352e-12
2.51833e-11
1.02362e-11
3.93377e-12
5.84988e-14
1.10824e-13
1.10933e-13
8.33773e-14
8.78491e-14
3.37999e-13
2.49254e-12
1.26335e-11
8.07198e-11
6.91151e-10
-9.96012e-19
-1.40243e-17
-9.63583e-17
-4.15535e-16
-1.22906e-15
-2.54459e-15
-3.54784e-15
-3.22941e-15
-1.88986e-15
-3.36505e-16
-7.82632e-33
7.05779e-17
8.96374e-16
3.0948e-15
3.2512e-15
2.95905e-15
3.09037e-15
6.03969e-15
3.81993e-14
4.04154e-13
4.14652e-12
3.15685e-11
1.84485e-10
-2.61566e-21
-1.93524e-20
-4.48188e-20
-1.32233e-30
-1.36243e-25
2.59086e-17
4.07745e-16
1.21481e-15
1.68692e-15
1.70376e-15
1.33499e-15
3.18661e-16
7.89136e-17
7.29457e-17
8.13252e-17
7.98705e-17
1.05183e-16
4.19829e-16
3.39506e-15
3.58356e-14
3.88327e-13
6.79583e-12
5.80906e-11
-2.59941e-24
-1.29684e-23
-1.60002e-23
-1.71478e-31
-3.6268e-24
1.93532e-22
2.30808e-19
6.39362e-18
3.12628e-17
6.29887e-17
8.60328e-18
3.29009e-18
2.2815e-18
2.02288e-18
1.98481e-18
2.15397e-18
4.30783e-18
2.63774e-17
2.58444e-16
2.89898e-15
3.19624e-14
4.94359e-13
8.51456e-12
-1.02351e-43
-7.65642e-39
-6.12795e-33
-7.26668e-27
-3.19543e-25
4.61045e-24
1.86075e-21
2.81935e-20
1.06015e-19
1.92323e-19
2.32192e-19
2.08857e-19
9.69922e-20
6.18491e-20
5.42307e-20
5.85046e-20
1.5342e-19
1.23089e-18
1.36599e-17
1.61845e-16
1.85077e-15
2.93028e-14
5.72268e-13
4.42044e-37
1.85437e-35
-3.62779e-33
-1.69562e-30
2.83052e-29
9.92863e-28
8.24796e-25
1.8757e-22
2.00421e-21
6.33088e-21
1.01588e-20
1.13791e-20
7.13533e-21
2.31332e-21
1.50751e-21
1.54353e-21
4.44763e-21
4.41388e-20
5.58083e-19
7.05268e-18
8.50023e-17
1.41152e-15
2.92155e-14
-8.93728e-38
-1.87819e-35
-1.88524e-33
3.97186e-34
-2.18944e-31
-1.56606e-30
1.86293e-27
8.92016e-25
1.65276e-23
7.08778e-23
1.35609e-22
1.64655e-22
1.49782e-22
6.75065e-23
4.21676e-23
3.89092e-23
1.08032e-22
1.30066e-21
1.88351e-20
2.5871e-19
3.3563e-18
6.03304e-17
1.34315e-15
2.69987e-43
6.01513e-41
6.45464e-39
-2.51423e-35
-1.19636e-33
1.03797e-33
6.12166e-32
7.79173e-29
2.23333e-26
2.82419e-25
1.07778e-24
2.00954e-24
2.43653e-24
2.2357e-24
1.10225e-24
7.67724e-25
2.29592e-24
3.26219e-23
5.30889e-22
8.02795e-21
1.13795e-19
2.27576e-18
5.59011e-17
5.31045e-47
-4.77657e-44
-1.62597e-41
-3.82537e-39
7.7352e-39
3.53821e-38
1.96844e-35
4.88833e-33
1.2233e-29
8.73653e-28
7.60101e-27
2.26582e-26
3.57765e-26
4.00275e-26
2.97278e-26
1.66498e-26
4.24585e-26
6.93954e-25
1.26689e-23
2.11686e-22
3.30077e-21
7.49417e-20
2.07192e-18
-3.55503e-48
-8.9227e-46
-1.05328e-43
8.03188e-44
-2.93014e-41
-5.1422e-40
1.93865e-38
6.98585e-37
7.50852e-35
1.37781e-31
9.8033e-30
9.51398e-29
3.05896e-28
5.00855e-28
5.6908e-28
4.6147e-28
6.69704e-28
1.23885e-26
2.55025e-25
4.73166e-24
8.15605e-23
2.12613e-21
6.69863e-20
2.97799e-54
9.19861e-52
1.25074e-49
-1.96637e-45
-1.18688e-43
5.21483e-44
3.72898e-42
1.73236e-40
5.89012e-39
9.18922e-36
7.9147e-33
2.44659e-31
1.58338e-30
3.87168e-30
5.45255e-30
5.91918e-30
9.8352e-30
1.83693e-28
4.28234e-27
8.91342e-26
1.71902e-24
5.22179e-23
1.86249e-21
6.78846e-58
-3.68963e-55
-1.83876e-52
-5.12335e-50
3.53319e-49
1.51911e-47
1.92478e-45
9.15323e-44
3.64343e-42
1.24693e-40
6.78719e-38
6.47404e-35
2.2231e-33
1.56607e-32
4.08886e-32
6.28662e-32
1.31932e-31
2.24051e-30
5.96487e-29
1.41061e-27
3.10373e-26
1.13132e-24
4.45755e-23
-1.85649e-59
-6.3674e-57
-1.00198e-54
6.34964e-55
-6.50328e-52
-1.97571e-50
3.17883e-49
1.7314e-47
7.78526e-46
3.02157e-44
1.31213e-42
7.05842e-39
2.08297e-36
3.74534e-35
1.77656e-34
3.82249e-34
9.85948e-34
2.17247e-32
6.83287e-31
1.86444e-29
4.78484e-28
2.18442e-26
9.28067e-25
3.61782e-65
1.74158e-62
3.74384e-60
-5.67422e-57
-4.6251e-55
4.30294e-54
3.25948e-52
1.92383e-50
9.91241e-49
4.57713e-47
1.90824e-45
7.21695e-44
2.81225e-41
1.13195e-38
2.3836e-37
1.32444e-36
5.43821e-36
1.60801e-34
6.33764e-33
2.04564e-31
6.28269e-30
3.82863e-28
1.68861e-26
2.01549e-68
6.27262e-66
-1.11191e-64
-5.20445e-61
5.20794e-59
4.70981e-57
3.99723e-55
2.73326e-53
1.6376e-51
8.78875e-50
4.28381e-48
1.9107e-46
7.94317e-45
1.32098e-42
1.51078e-40
1.9397e-39
1.9269e-38
7.85063e-37
4.55182e-35
1.81736e-33
6.87204e-32
6.09588e-30
2.66949e-28
-2.26088e-70
-1.18385e-67
-2.64022e-65
2.44459e-64
-1.50705e-62
1.94465e-60
3.53991e-58
2.86502e-56
2.04158e-54
1.30249e-52
7.53814e-51
4.00222e-49
1.96822e-47
9.04313e-46
4.01795e-44
1.76214e-42
6.41934e-41
2.51311e-39
2.30557e-37
1.25624e-35
6.01737e-34
8.30501e-32
3.66397e-30
1.71327e-75
1.05309e-72
3.09578e-70
-6.63948e-67
-7.40001e-65
1.39061e-63
1.62102e-61
1.61191e-59
1.41154e-57
1.10568e-55
7.84419e-54
5.09558e-52
3.06e-50
1.71299e-48
9.00458e-47
4.4824e-45
2.10468e-43
9.44299e-42
6.20579e-40
6.39631e-38
4.25464e-36
1.05227e-33
4.30365e-32
1.68557e-79
2.39023e-77
-1.8401e-74
-2.01348e-71
1.19495e-69
2.02579e-67
3.01882e-65
3.8818e-63
4.39098e-61
4.43625e-59
4.05036e-57
3.37791e-55
2.59789e-53
1.85792e-51
1.24442e-49
7.85423e-48
4.69716e-46
2.63144e-44
1.4652e-42
1.92511e-40
2.12215e-38
1.06969e-35
4.27904e-34
-2.76598e-82
-1.2382e-79
-3.40567e-77
1.0594e-76
1.40273e-74
-4.2973e-72
1.35308e-69
2.44167e-67
3.88071e-65
5.49634e-63
7.01477e-61
8.15349e-59
8.71408e-57
8.63491e-55
7.98877e-53
6.93941e-51
5.68383e-49
4.40238e-47
3.18216e-45
2.29906e-43
6.96845e-41
9.86206e-38
3.48834e-36
-7.01149e-90
-1.27113e-87
-5.21826e-86
-1.0714e-80
-1.28418e-77
1.04719e-77
3.57656e-75
1.09391e-72
2.90526e-70
6.8561e-68
1.45309e-65
2.79526e-63
4.92781e-61
8.02775e-59
1.21668e-56
1.72416e-54
2.29126e-52
2.85691e-50
3.30221e-48
3.58032e-46
1.01322e-43
4.88782e-40
2.29259e-38
-3.6615e-96
-6.72037e-93
-4.36072e-90
-1.70457e-86
-7.69266e-89
-2.00631e-86
-8.11526e-83
-2.21523e-81
-4.4079e-79
1.4993e-76
2.30216e-73
1.68771e-70
9.73098e-68
4.89083e-65
2.22872e-62
9.37206e-60
3.66167e-57
1.32766e-54
4.42421e-52
1.31227e-49
4.12868e-47
1.3993e-42
1.16522e-40
-4.14884e-105
-6.17287e-103
-2.09613e-100
-8.3842e-101
-8.20171e-100
-9.75417e-93
-1.5901e-93
-1.28818e-91
-1.40674e-88
-1.4088e-85
-1.24391e-82
-9.61868e-80
-6.55105e-77
-3.96685e-74
-2.15617e-71
-1.06096e-68
-4.75724e-66
-1.95186e-63
-7.33331e-61
-2.51206e-58
6.07833e-52
1.35509e-45
5.0619e-43
0.999899
0.999978
0.552276
7.93909e-11
0.999986
0.999995
0.970032
0.922809
1
0.999997
1.00022
0.998837
0.999999
0.999998
1
0.99977
0.999998
0.999997
0.999769
0.999551
0.574189
0.644085
0.787769
0.999402
0.0121234
0.0214739
0.0516091
0.0713644
-0.000338347
0.000109144
2.52074e-05
0.000445402
-1.91439e-06
-4.28342e-05
-2.34069e-05
3.2931e-05
-1.23968e-07
-2.25445e-06
-4.22513e-07
2.80592e-06
1.08976e-08
2.54026e-08
1.26447e-07
3.54603e-07
1.71706e-08
6.04956e-08
8.6455e-08
1.5423e-07
1.57757e-08
1.65936e-07
1.45854e-05
3.58188e-07
2.08963e-08
1.22809e-06
0.000250201
4.24833e-05
2.28291e-08
7.48861e-05
0.00025187
0.000249839
6.34378e-08
5.77248e-06
6.91535e-05
0.00019416
4.7397e-08
1.1253e-06
5.06207e-06
3.22775e-05
4.67957e-08
7.76708e-07
3.56683e-06
8.82127e-06
4.70948e-08
4.4813e-07
2.07736e-06
6.12127e-06
1.826e-08
1.19165e-07
5.26737e-07
1.60371e-06
3.71492e-09
1.51768e-08
7.00271e-08
1.91399e-07
5.13675e-10
2.02099e-09
8.70175e-09
2.05772e-08
1.17676e-10
4.98583e-10
1.58169e-09
1.95931e-09
4.05133e-11
1.59762e-10
2.3643e-10
1.70334e-10
3.06824e-12
1.61012e-11
2.48193e-11
1.31594e-11
1.60091e-13
9.91413e-13
1.63295e-12
9.00253e-13
7.326e-15
5.01117e-14
8.81819e-14
5.60276e-14
3.0355e-16
2.26577e-15
4.3246e-15
3.10688e-15
1.10329e-17
9.12101e-17
1.96873e-16
1.53681e-16
3.45968e-19
3.24578e-18
8.00488e-18
6.80673e-18
9.10356e-21
9.87995e-20
2.8895e-19
2.70124e-19
1.9632e-22
2.32696e-21
9.01504e-21
9.59205e-21
3.62558e-24
3.87794e-23
2.3598e-22
3.05517e-22
5.87361e-26
4.55901e-25
5.04386e-24
8.76122e-24
8.70734e-28
6.09818e-27
8.28377e-26
2.27078e-25
1.04598e-29
4.81289e-29
8.39926e-28
5.32968e-27
9.68302e-32
4.67724e-31
7.60979e-30
1.13184e-28
5.77889e-34
6.10348e-33
1.20943e-31
2.1708e-30
2.41029e-36
6.77264e-35
1.6894e-33
3.76158e-32
1.69179e-38
6.43961e-37
2.10515e-35
5.9854e-34
1.10405e-40
5.99937e-39
2.6132e-37
9.54453e-36
1.34771e-42
1.10405e-40
5.99937e-39
2.61326e-37
7.71624e-11
4.77862e-11
7.64029e-11
-4.47888e-11
2.34398e-10
2.81326e-11
6.67546e-13
1.42357e-14
4.63985e-16
8.10944e-18
1.63136e-19
3.59429e-21
6.62626e-23
1.07015e-24
1.40432e-26
1.33573e-28
8.35747e-31
1.84634e-33
4.20333e-34
0.143253
-3.41544e-07
-4.10718e-07
3.24247e-08
-1.23132e-10
8.46226e-10
2.36376e-11
3.21253e-13
1.85826e-14
5.09081e-16
2.89072e-18
7.99574e-21
4.12034e-23
1.64942e-25
1.33517e-27
7.43002e-28
8.62236e-30
2.63027e-32
2.74869e-33
0.849038
0.104782
0.000233396
-1.34743e-07
2.61149e-07
2.70462e-08
7.78227e-10
1.84216e-11
5.13477e-13
1.99629e-14
8.84482e-17
8.95021e-19
6.71263e-21
3.59619e-23
1.64755e-25
7.86294e-28
2.12599e-29
1.19118e-31
5.92546e-33
0.998878
0.585869
0.0285688
0.000475267
2.97211e-06
5.25833e-07
2.12103e-08
6.79121e-10
1.79806e-11
3.68721e-13
1.59531e-14
1.66037e-16
6.92607e-19
5.68263e-21
3.59619e-23
4.05324e-25
9.33738e-28
2.0157e-30
1.03517e-32
0.999385
0.996576
0.328003
0.00412743
0.000284273
1.2516e-05
4.4821e-07
1.40103e-08
3.16234e-10
9.08608e-12
2.3065e-13
1.33967e-14
1.79147e-16
1.40621e-18
9.81945e-21
4.7845e-23
1.38631e-25
3.43153e-28
1.96155e-30
0.996572
0.987412
0.690316
0.0629754
0.00133941
8.91581e-05
4.59059e-06
1.75562e-07
5.8426e-09
1.59293e-10
3.84793e-12
9.21088e-14
4.16537e-15
5.12873e-17
4.12568e-19
2.25619e-21
9.17115e-24
2.68121e-26
3.37999e-28
0.71113
0.977148
0.905874
0.192567
0.00313058
0.000287579
2.03267e-05
1.02456e-06
4.03746e-08
1.31035e-09
3.56801e-11
1.0094e-12
2.68014e-14
7.34346e-16
7.69152e-18
4.62258e-20
2.47817e-22
6.71115e-25
2.62921e-26
0.191794
0.89679
0.8821
0.369142
0.00945038
0.000552441
4.84577e-05
2.94659e-06
1.3676e-07
5.16317e-09
1.63373e-10
4.92846e-12
1.29051e-13
4.86605e-15
6.47894e-17
4.67803e-19
2.62325e-21
7.37297e-24
8.099e-25
0.000559113
0.693281
0.843303
0.490387
0.0195059
0.000783488
7.33052e-05
4.86405e-06
2.48466e-07
1.03438e-08
3.62825e-10
1.12229e-11
3.80485e-13
1.8233e-14
2.92074e-16
2.70447e-18
1.26832e-20
4.38662e-23
9.72547e-24
4.01273e-05
0.444069
0.817125
0.474247
0.0214928
0.000812285
7.42436e-05
4.90388e-06
2.55949e-07
1.11912e-08
4.22303e-10
1.42958e-11
6.30098e-13
4.56387e-14
8.197e-16
8.49108e-18
6.16634e-20
1.35417e-22
5.34049e-23
3.04352e-06
0.254777
0.764333
0.422029
0.0181486
0.000647217
5.33779e-05
3.42237e-06
1.77428e-07
7.8749e-09
3.13133e-10
1.26897e-11
8.78345e-13
1.0014e-13
2.18373e-15
2.01431e-17
1.51295e-19
4.21848e-22
1.52681e-22
3.58174e-07
0.236467
0.665922
0.283964
0.00614541
0.000396207
2.92572e-05
1.68415e-06
8.86983e-08
4.03419e-09
1.71459e-10
9.11365e-12
1.45344e-12
1.59837e-13
4.48773e-15
4.81709e-17
3.24351e-19
6.36319e-22
2.88736e-22
2.96865e-06
0.27327
0.592996
0.155995
0.00237061
0.000244452
1.44852e-05
8.59399e-07
4.32895e-08
2.0887e-09
9.67108e-11
6.9659e-12
1.74592e-12
2.89833e-13
1.35999e-14
1.5686e-16
6.9456e-19
8.1907e-22
4.4861e-22
1.75152e-05
0.268803
0.537795
0.166969
0.00180249
0.000161756
8.02422e-07
5.35942e-07
4.5415e-08
2.82279e-09
1.75174e-10
1.22594e-11
2.26163e-12
3.73711e-13
2.44149e-14
4.26026e-16
1.8183e-18
2.1812e-21
8.32163e-22
2.93678e-05
0.0826293
0.476721
0.405063
0.018878
0.00028
2.18692e-05
8.68928e-07
2.54373e-07
1.96089e-08
1.01801e-09
6.37121e-11
4.27239e-12
3.86659e-13
4.1304e-14
8.77846e-16
1.40108e-18
6.95669e-21
2.07454e-21
3.97162e-05
6.97118e-05
0.379773
0.404391
0.202937
0.00750805
0.000180345
1.92754e-05
1.6235e-06
1.40228e-07
7.98968e-09
3.82914e-10
3.01673e-11
1.52353e-12
4.32299e-14
8.78385e-16
8.40517e-18
5.19548e-20
6.77088e-21
0.000165236
0.000128293
0.0885222
0.373088
0.353812
0.0644442
0.000843841
0.000105569
1.02468e-05
8.77151e-07
5.88778e-08
3.04454e-09
1.27162e-10
6.80036e-12
1.8884e-13
5.19112e-15
5.35966e-17
2.98866e-19
4.75092e-20
5.79613e-05
0.000824824
0.00101366
0.11501
0.198327
0.130097
0.00720808
0.000222005
2.43364e-05
1.89138e-06
1.24237e-07
6.65981e-09
2.69835e-10
1.12326e-11
3.53448e-13
2.07173e-14
3.02806e-16
1.74141e-18
1.94822e-19
2.94606e-05
0.000187324
0.000648073
0.0032229
0.0172455
0.0451971
0.0158391
0.00037474
2.01575e-05
1.61196e-06
8.98024e-08
4.55502e-09
1.92264e-10
7.8902e-12
7.46785e-13
3.53461e-14
5.35338e-16
4.98931e-18
8.45373e-20
5.69592e-06
4.31239e-05
0.000550797
0.000748596
0.00164657
0.00174642
0.00507655
0.00078371
1.48228e-05
5.81033e-07
3.4904e-08
1.31754e-09
5.49636e-11
3.99414e-12
6.61997e-13
2.0791e-14
2.96962e-16
3.05914e-18
1.72553e-20
7.16961e-07
1.46713e-05
0.000110354
0.000132022
0.0002878
0.000346149
0.000155877
0.000147327
8.21404e-06
1.5719e-07
7.35999e-09
3.53244e-10
1.97417e-11
3.40077e-12
2.00895e-13
4.01637e-15
6.56071e-17
7.07945e-19
3.26276e-21
8.07585e-08
1.21927e-06
7.64651e-06
1.97998e-05
4.22868e-05
5.66456e-05
2.76195e-05
2.89518e-06
3.64384e-07
2.76635e-08
1.36592e-09
7.34304e-11
1.10494e-11
9.95172e-13
2.51752e-14
5.56281e-16
9.26359e-18
1.01218e-19
5.27153e-22
8.93081e-09
9.38195e-08
4.66176e-07
2.20529e-06
5.32209e-06
7.75889e-06
4.06833e-06
4.28543e-07
3.27833e-08
2.34416e-09
1.7924e-10
2.2816e-11
2.78427e-12
1.01934e-13
2.87951e-15
6.62988e-17
1.12411e-18
1.25144e-20
6.70677e-23
9.06269e-10
6.73894e-09
4.47737e-08
2.15574e-07
5.82326e-07
9.0796e-07
5.08061e-07
5.78253e-08
3.95692e-09
2.48856e-10
2.02376e-11
4.73365e-12
2.6652e-13
9.39005e-15
2.83372e-16
6.66604e-18
1.15372e-19
1.3093e-21
7.06801e-24
6.54639e-11
5.03928e-10
3.49235e-09
1.85865e-08
5.61792e-08
9.26382e-08
5.47884e-08
7.08139e-09
4.57609e-10
2.83238e-11
4.26611e-12
4.79712e-13
2.10408e-14
7.98209e-16
2.43833e-17
5.84077e-19
1.03223e-20
1.19326e-22
6.44567e-25
7.24246e-12
4.07586e-11
2.79293e-10
1.45942e-09
4.82928e-09
8.37861e-09
5.2645e-09
7.87746e-10
5.10234e-11
3.88187e-12
7.28455e-13
4.04963e-14
1.78665e-15
6.58197e-17
1.9634e-18
4.72701e-20
8.48023e-22
9.94532e-24
5.3545e-26
7.07382e-13
5.19583e-12
2.46659e-11
1.30386e-10
3.75957e-10
6.80626e-10
4.52366e-10
8.09715e-11
5.98399e-12
8.48134e-13
6.93193e-14
3.4703e-15
1.52001e-16
5.53382e-18
1.64002e-19
3.92627e-21
7.0401e-23
8.30773e-25
4.47714e-27
3.70888e-14
6.93719e-13
6.40743e-12
1.49809e-11
3.50804e-11
5.54287e-11
3.77805e-11
8.04096e-12
8.38549e-13
9.22164e-14
5.43164e-15
2.84863e-16
1.25214e-17
4.57466e-19
1.36262e-20
3.27722e-22
5.92065e-24
7.06675e-26
3.80288e-28
1.52764e-15
2.65102e-14
6.31193e-13
3.05346e-12
5.04702e-12
4.36356e-12
3.00759e-12
6.30763e-13
8.43026e-14
6.73234e-15
4.2332e-16
2.25085e-17
9.97541e-19
3.67173e-20
1.10278e-21
2.68041e-23
4.90403e-25
5.93992e-27
3.17939e-29
5.37857e-17
1.15835e-15
2.72847e-14
2.29449e-13
5.4645e-13
5.50894e-13
2.8747e-13
5.46288e-14
6.1493e-15
4.8926e-16
3.17393e-17
1.71523e-18
7.70057e-20
2.86763e-21
8.7145e-23
2.14518e-24
3.97957e-26
4.89558e-28
2.59924e-30
1.81447e-18
4.36827e-17
1.1183e-15
1.07037e-14
3.24971e-14
3.96957e-14
2.12252e-14
3.79436e-15
4.12727e-16
3.44154e-17
2.29054e-18
1.26299e-19
5.76657e-21
2.18015e-22
6.72267e-24
1.67945e-25
3.16335e-27
3.95506e-29
2.0783e-31
7.01173e-20
1.37739e-18
4.13888e-17
4.9887e-16
1.63668e-15
2.07728e-15
1.2592e-15
2.35186e-16
2.69883e-17
2.33067e-18
1.59552e-19
9.00533e-21
4.19456e-22
1.61445e-23
5.06285e-25
1.28573e-26
2.46147e-28
3.129e-30
1.62448e-32
2.46037e-21
3.83183e-20
1.51028e-18
2.15884e-17
7.954e-17
1.05339e-16
7.09707e-17
1.41618e-17
1.70103e-18
1.52392e-19
1.07577e-20
6.23139e-22
2.96834e-23
1.16565e-24
3.72405e-26
9.62617e-28
1.87452e-29
2.42304e-31
1.24128e-33
7.88357e-23
1.36526e-21
5.23327e-20
8.69461e-19
3.6484e-18
5.10628e-18
3.84654e-18
8.2197e-19
1.03602e-19
9.65079e-21
7.04049e-22
4.19429e-23
2.04731e-24
8.21658e-26
2.67798e-27
7.05244e-29
1.39759e-30
1.83685e-32
9.27726e-35
2.31492e-24
4.51853e-23
1.67786e-21
3.28144e-20
1.58429e-19
2.35958e-19
2.00165e-19
4.60845e-20
6.11631e-21
5.93736e-22
4.4849e-23
2.75273e-24
1.37902e-25
5.66382e-27
1.8851e-28
5.06119e-30
1.02099e-31
1.36405e-33
6.78918e-36
6.25188e-26
1.3947e-24
4.92531e-23
1.16022e-21
6.41587e-21
1.07469e-20
9.86952e-21
2.50382e-21
3.51066e-22
3.55905e-23
2.78846e-24
1.76596e-25
9.09132e-27
3.82515e-28
1.30109e-29
3.56293e-31
7.31733e-33
9.93394e-35
4.87176e-37
1.55567e-27
4.03017e-26
1.31376e-24
3.89483e-23
2.47695e-22
4.72712e-22
4.70137e-22
1.32238e-22
1.96504e-23
2.08473e-24
1.69685e-25
1.11029e-26
5.88001e-28
2.53649e-29
8.82186e-31
2.46464e-32
5.15302e-34
7.10547e-36
3.43388e-38
3.57318e-29
1.09457e-27
3.17481e-26
1.24925e-24
9.18454e-24
2.00923e-23
2.17966e-23
6.81109e-24
1.07579e-24
1.19671e-25
1.01342e-26
6.85905e-28
3.74021e-29
1.65523e-30
5.88866e-32
1.67862e-33
3.57238e-35
5.00059e-37
2.38214e-39
7.60648e-31
2.80922e-29
7.19582e-28
3.85126e-26
3.27516e-25
8.32283e-25
9.85912e-25
3.43195e-25
5.77687e-26
6.75069e-27
5.95624e-28
4.17443e-29
2.34567e-30
1.06553e-31
3.87852e-33
1.12808e-34
2.44303e-36
3.46947e-38
1.6298e-40
1.5229e-32
6.87641e-31
2.07445e-29
1.15552e-27
1.1355e-26
3.35985e-26
4.36138e-26
1.69645e-26
3.05008e-27
3.75092e-28
3.45297e-29
2.50864e-30
1.45375e-31
6.78199e-33
2.52636e-34
7.49681e-36
1.65152e-37
2.37789e-39
1.03876e-41
3.05468e-34
1.52325e-32
5.85533e-31
3.43045e-29
3.80228e-28
1.21923e-27
1.66145e-27
7.40839e-28
1.51141e-28
2.0022e-29
1.95207e-30
1.4871e-31
8.93387e-33
4.28392e-34
1.63395e-35
4.94729e-37
1.10817e-38
1.61609e-40
6.80618e-43
9.54713e-36
3.05506e-34
1.65165e-32
5.86854e-31
1.42032e-29
1.26373e-28
4.50851e-28
8.35044e-29
1.04482e-29
1.00847e-30
7.70248e-32
4.69596e-33
2.60281e-34
1.29663e-35
5.11347e-37
1.59383e-38
3.65944e-40
5.44731e-42
6.80618e-43
)
;

boundaryField
{
    leftWall
    {
        type            zeroGradient;
    }
    rightWall
    {
        type            zeroGradient;
    }
    lowerWall
    {
        type            zeroGradient;
    }
    atmosphere
    {
        type            inletOutlet;
        inletValue      uniform 0;
        value           nonuniform List<scalar> 
46
(
0
0
0
0
0
0
0
0
0
0
0
0
0
0
0
0
0
0
0
0
0
0
0
1.34771e-42
1.10405e-40
5.99937e-39
2.61326e-37
9.54713e-36
3.05506e-34
1.65165e-32
5.86854e-31
1.42032e-29
1.26373e-28
4.50851e-28
8.35044e-29
1.04482e-29
1.00847e-30
7.70248e-32
4.69596e-33
2.60281e-34
1.29663e-35
5.11347e-37
1.59383e-38
3.65944e-40
5.44731e-42
6.80618e-43
)
;
    }
    defaultFaces
    {
        type            empty;
    }
}


// ************************************************************************* //
