/*--------------------------------*- C++ -*----------------------------------*\
| =========                 |                                                 |
| \\      /  F ield         | OpenFOAM: The Open Source CFD Toolbox           |
|  \\    /   O peration     | Version:  v2012                                 |
|   \\  /    A nd           | Website:  www.openfoam.com                      |
|    \\/     M anipulation  |                                                 |
\*---------------------------------------------------------------------------*/
FoamFile
{
    version     2.0;
    format      ascii;
    class       surfaceScalarField;
    location    "0.25";
    object      phi;
}
// * * * * * * * * * * * * * * * * * * * * * * * * * * * * * * * * * * * * * //

dimensions      [0 3 -1 0 0 0 0];
oriented        oriented;


internalField   nonuniform List<scalar> 
4432
(
-3.60884e-06
3.60884e-06
-1.33657e-06
-2.27227e-06
3.51683e-06
-4.8534e-06
9.14805e-06
-5.63122e-06
1.48362e-05
-5.68812e-06
2.04081e-05
-5.5719e-06
2.58905e-05
-5.48241e-06
3.13448e-05
-5.45429e-06
3.68142e-05
-5.46939e-06
4.23055e-05
-5.49128e-06
4.77772e-05
-5.47176e-06
5.31265e-05
-5.34926e-06
5.81691e-05
-5.04266e-06
6.26106e-05
-4.44148e-06
6.59891e-05
-3.3785e-06
6.7509e-05
-1.51987e-06
6.57264e-05
1.78259e-06
5.88522e-05
6.87417e-06
4.56404e-05
1.32118e-05
2.62341e-05
1.94063e-05
3.39641e-06
2.28377e-05
-1.38349e-05
1.72313e-05
-1.38349e-05
-6.15668e-07
4.22452e-06
2.50191e-06
-5.38985e-06
7.39968e-06
-9.75117e-06
1.28579e-05
-1.10894e-05
1.84143e-05
-1.12446e-05
2.3935e-05
-1.10926e-05
2.94181e-05
-1.09655e-05
3.4899e-05
-1.09352e-05
4.04028e-05
-1.09732e-05
4.59234e-05
-1.10119e-05
5.14121e-05
-1.09604e-05
5.67643e-05
-1.07015e-05
6.18029e-05
-1.00812e-05
6.62564e-05
-8.89495e-06
6.97399e-05
-6.86201e-06
7.18148e-05
-3.59485e-06
7.20534e-05
1.54405e-06
6.95788e-05
9.34873e-06
6.25449e-05
2.02458e-05
4.87487e-05
3.32024e-05
2.7809e-05
4.37775e-05
7.08219e-06
3.79581e-05
-6.75269e-06
1.43324e-06
2.79128e-06
5.11893e-06
-9.07555e-06
1.00253e-05
-1.46575e-05
1.53422e-05
-1.64063e-05
2.07454e-05
-1.66478e-05
2.61442e-05
-1.64914e-05
3.15382e-05
-1.63595e-05
3.6951e-05
-1.6348e-05
4.23958e-05
-1.64179e-05
4.78583e-05
-1.64744e-05
5.32863e-05
-1.63885e-05
5.85777e-05
-1.59928e-05
6.35644e-05
-1.5068e-05
6.79965e-05
-1.3327e-05
7.15281e-05
-1.03936e-05
7.37193e-05
-5.78607e-06
7.41098e-05
1.15365e-06
7.21904e-05
1.12681e-05
6.71676e-05
2.52686e-05
5.77149e-05
4.26552e-05
4.19749e-05
5.95174e-05
2.0985e-05
5.8948e-05
1.42323e-05
2.64168e-06
1.49603e-07
6.95986e-06
-1.33937e-05
1.20099e-05
-1.97075e-05
1.72716e-05
-2.1668e-05
2.25611e-05
-2.19373e-05
2.78472e-05
-2.17774e-05
3.3146e-05
-2.16583e-05
3.84791e-05
-2.16812e-05
4.38541e-05
-2.17929e-05
4.92531e-05
-2.18734e-05
5.4624e-05
-2.17594e-05
5.9869e-05
-2.12378e-05
6.48308e-05
-2.00298e-05
6.92773e-05
-1.77736e-05
7.28927e-05
-1.40089e-05
7.52764e-05
-8.16978e-06
7.59843e-05
4.45739e-07
7.45698e-05
1.26826e-05
7.05274e-05
2.9311e-05
6.30371e-05
5.01454e-05
5.0266e-05
7.22885e-05
2.9938e-05
7.9276e-05
4.41703e-05
3.31509e-06
-3.16549e-06
8.21349e-06
-1.82921e-05
1.34794e-05
-2.49735e-05
1.87522e-05
-2.69409e-05
2.39716e-05
-2.71567e-05
2.91689e-05
-2.69747e-05
3.43837e-05
-2.68731e-05
3.96422e-05
-2.69398e-05
4.49515e-05
-2.71021e-05
5.02939e-05
-2.72159e-05
5.56207e-05
-2.70862e-05
6.08412e-05
-2.64584e-05
6.581e-05
-2.49985e-05
7.03126e-05
-2.22762e-05
7.4059e-05
-1.77553e-05
7.66869e-05
-1.07977e-05
7.77924e-05
-6.59773e-07
7.69711e-05
1.35039e-05
7.37849e-05
3.24973e-05
6.75081e-05
5.64222e-05
5.64078e-05
8.33889e-05
3.64966e-05
9.91872e-05
8.06669e-05
3.71875e-06
-6.88425e-06
9.05263e-06
-2.3626e-05
1.45185e-05
-3.04393e-05
1.98239e-05
-3.22463e-05
2.49992e-05
-3.23319e-05
3.01283e-05
-3.21039e-05
3.52726e-05
-3.20174e-05
4.04653e-05
-3.21325e-05
4.5716e-05
-3.23528e-05
5.10105e-05
-3.25104e-05
5.6306e-05
-3.23817e-05
6.15217e-05
-3.1674e-05
6.65253e-05
-3.00022e-05
7.11203e-05
-2.68711e-05
7.50404e-05
-2.16755e-05
7.79586e-05
-1.37159e-05
7.95176e-05
-2.2188e-06
7.93595e-05
1.36619e-05
7.70878e-05
3.4769e-05
7.19875e-05
6.15225e-05
6.23349e-05
9.30414e-05
4.29341e-05
0.000118588
0.000123601
3.99165e-06
-1.08759e-05
9.60826e-06
-2.92426e-05
1.52075e-05
-3.60386e-05
2.05292e-05
-3.7568e-05
2.56653e-05
-3.7468e-05
3.07366e-05
-3.71752e-05
3.58196e-05
-3.71004e-05
4.09533e-05
-3.72661e-05
4.61509e-05
-3.75504e-05
5.14036e-05
-3.77631e-05
5.66767e-05
-3.76548e-05
6.1901e-05
-3.68984e-05
6.69596e-05
-3.50608e-05
7.16741e-05
-3.15856e-05
7.58011e-05
-2.58025e-05
7.90473e-05
-1.69621e-05
8.11053e-05
-4.27681e-06
8.16798e-05
1.30874e-05
8.04511e-05
3.59977e-05
7.679e-05
6.51836e-05
6.91469e-05
0.000100685
5.11865e-05
0.000136548
0.000174788
4.19201e-06
-1.50679e-05
9.96662e-06
-3.50172e-05
1.56153e-05
-4.16873e-05
2.09156e-05
-4.28683e-05
2.60026e-05
-4.25549e-05
3.10174e-05
-4.219e-05
3.60432e-05
-4.21262e-05
4.11217e-05
-4.23446e-05
4.62694e-05
-4.26982e-05
5.14834e-05
-4.29771e-05
5.67385e-05
-4.29098e-05
6.1979e-05
-4.21389e-05
6.71047e-05
-4.01865e-05
7.19558e-05
-3.64367e-05
7.63107e-05
-3.01573e-05
7.99081e-05
-2.05596e-05
8.24929e-05
-6.86155e-06
8.38516e-05
1.17286e-05
8.37998e-05
3.60496e-05
8.19637e-05
6.70198e-05
7.72784e-05
0.00010537
6.16817e-05
0.000152145
0.000236469
-1.53379e-06
1.53379e-06
-8.09513e-06
6.56132e-06
-1.27039e-05
4.60872e-06
-1.41125e-05
1.40876e-06
-1.31695e-05
-9.42958e-07
-1.10403e-05
-2.12935e-06
-8.53824e-06
-2.50222e-06
-6.11137e-06
-2.42682e-06
-3.98687e-06
-2.12444e-06
-2.27542e-06
-1.71152e-06
-9.97439e-07
-1.27805e-06
-1.18766e-07
-8.78676e-07
4.0912e-07
-5.27823e-07
6.3253e-07
-2.23483e-07
6.06317e-07
2.63619e-08
3.90296e-07
2.16242e-07
1.17582e-07
2.72509e-07
-3.65671e-08
1.54403e-07
-3.67989e-08
-5.63006e-06
7.16383e-06
-1.20032e-05
1.29346e-05
-1.53025e-05
7.90802e-06
-1.57363e-05
1.84254e-06
-1.44263e-05
-2.25309e-06
-1.22218e-05
-4.33389e-06
-9.66215e-06
-5.06197e-06
-7.14268e-06
-4.94638e-06
-4.88987e-06
-4.37725e-06
-3.02624e-06
-3.57523e-06
-1.59566e-06
-2.70859e-06
-5.8013e-07
-1.89424e-06
6.65629e-08
-1.17457e-06
4.0042e-07
-5.57223e-07
4.8209e-07
-5.53183e-08
3.93115e-07
3.05156e-07
2.17464e-07
4.48057e-07
3.76378e-08
3.34364e-07
9.41269e-10
-8.22668e-06
1.53905e-05
-1.4031e-05
1.8739e-05
-1.64753e-05
1.03524e-05
-1.65228e-05
1.88989e-06
-1.50135e-05
-3.76269e-06
-1.2712e-05
-6.6354e-06
-1.01192e-05
-7.65471e-06
-7.58046e-06
-7.48533e-06
-5.30008e-06
-6.65778e-06
-3.38931e-06
-5.48601e-06
-1.89477e-06
-4.20331e-06
-8.12406e-07
-2.97677e-06
-1.03685e-07
-1.88341e-06
2.89765e-07
-9.50847e-07
4.38371e-07
-2.04092e-07
4.14724e-07
3.28916e-07
2.82183e-07
5.80407e-07
1.2071e-07
4.96135e-07
1.21694e-07
-1.03414e-05
2.57318e-05
-1.58778e-05
2.42754e-05
-1.76857e-05
1.21604e-05
-1.72749e-05
1.47898e-06
-1.54556e-05
-5.58215e-06
-1.29696e-05
-9.12149e-06
-1.02974e-05
-1.03269e-05
-7.73704e-06
-1.00457e-05
-5.45659e-06
-8.9385e-06
-3.54175e-06
-7.40098e-06
-2.02912e-06
-5.71604e-06
-9.18026e-07
-4.08803e-06
-1.75981e-07
-2.6254e-06
2.54123e-07
-1.38104e-06
4.40168e-07
-3.9045e-07
4.52222e-07
3.17156e-07
3.50335e-07
6.8229e-07
1.90086e-07
6.56383e-07
3.1175e-07
-1.27608e-05
3.84926e-05
-1.79872e-05
2.95016e-05
-1.91284e-05
1.33015e-05
-1.81122e-05
4.62834e-07
-1.58517e-05
-7.84281e-06
-1.30835e-05
-1.18897e-05
-1.02729e-05
-1.31376e-05
-7.67109e-06
-1.26476e-05
-5.39969e-06
-1.12099e-05
-3.50836e-06
-9.29229e-06
-2.01241e-06
-7.21201e-06
-9.0502e-07
-5.19555e-06
-1.56463e-07
-3.37403e-06
2.85585e-07
-1.82302e-06
4.87278e-07
-5.91889e-07
5.13214e-07
2.91419e-07
4.17431e-07
7.77939e-07
2.42792e-07
8.30901e-07
5.54541e-07
-1.60355e-05
5.45282e-05
-2.04928e-05
3.39589e-05
-2.08142e-05
1.36229e-05
-1.90303e-05
-1.32113e-06
-1.62051e-05
-1.06679e-05
-1.30626e-05
-1.50322e-05
-1.00561e-05
-1.61441e-05
-7.3894e-06
-1.53143e-05
-5.13008e-06
-1.34692e-05
-3.28307e-06
-1.11393e-05
-1.83382e-06
-8.66138e-06
-7.61413e-07
-6.26781e-06
-3.46414e-08
-4.10055e-06
3.94076e-07
-2.25171e-06
5.84068e-07
-7.81924e-07
6.02848e-07
2.72509e-07
4.90449e-07
8.9023e-07
2.91989e-07
1.02953e-06
8.46579e-07
-2.02922e-05
7.48205e-05
-2.32203e-05
3.6887e-05
-2.2597e-05
1.29996e-05
-1.9927e-05
-3.99103e-06
-1.64658e-05
-1.4129e-05
-1.28835e-05
-1.86145e-05
-9.63661e-06
-1.93909e-05
-6.88615e-06
-1.80648e-05
-4.64119e-06
-1.5714e-05
-2.85597e-06
-1.29243e-05
-1.48021e-06
-1.00372e-05
-4.72935e-07
-7.27496e-06
2.02702e-07
-4.77614e-06
5.9157e-07
-2.64086e-06
7.50093e-07
-9.40788e-07
7.32652e-07
2.89979e-07
5.85412e-07
1.03746e-06
3.35952e-07
1.27904e-06
1.18255e-06
-2.82366e-05
0.000103057
-2.55338e-05
3.41842e-05
-2.40924e-05
1.15582e-05
-2.06059e-05
-7.4775e-06
-1.65161e-05
-1.82188e-05
-1.24787e-05
-2.2652e-05
-8.98122e-06
-2.28883e-05
-6.14892e-06
-2.08971e-05
-3.93073e-06
-1.79322e-05
-2.2272e-06
-1.4628e-05
-9.5029e-07
-1.13141e-05
-3.69775e-08
-8.18832e-06
5.58814e-07
-5.37221e-06
8.81638e-07
-2.96373e-06
9.8243e-07
-1.04137e-06
9.09828e-07
3.62765e-07
7.05341e-07
1.24178e-06
3.9584e-07
1.58875e-06
1.57824e-06
9.27961e-06
-2.43475e-05
2.18666e-05
-4.76043e-05
3.37377e-05
-5.35583e-05
4.47744e-05
-5.3905e-05
5.53884e-05
-5.31689e-05
6.58733e-05
-5.2675e-05
7.63949e-05
-5.26478e-05
8.70393e-05
-5.29889e-05
9.78493e-05
-5.35082e-05
0.000108838
-5.39655e-05
0.000119984
-5.40563e-05
0.000131219
-5.33739e-05
0.000142389
-5.13563e-05
0.000153212
-4.72601e-05
0.000163279
-4.02235e-05
0.000172125
-2.94055e-05
0.000179376
-1.41132e-05
0.000184882
6.22252e-06
0.000188838
3.2094e-05
0.000191851
6.40063e-05
0.000194869
0.000102352
0.000200907
0.000146107
0.00020325
0.000234127
9.86269e-06
-3.42102e-05
2.20534e-05
-5.97949e-05
3.32256e-05
-6.47305e-05
4.36475e-05
-6.43269e-05
5.3818e-05
-6.33394e-05
6.39925e-05
-6.28495e-05
7.42837e-05
-6.29389e-05
8.47481e-05
-6.34534e-05
9.5422e-05
-6.41821e-05
0.000106332
-6.48753e-05
0.000117494
-6.52188e-05
0.000128907
-6.47863e-05
0.0001405
-6.29495e-05
0.000152061
-5.88213e-05
0.00016322
-5.13827e-05
0.000173571
-3.97561e-05
0.000182896
-2.34381e-05
0.000191309
-2.19067e-06
0.000199463
2.39401e-05
0.000208887
5.45826e-05
0.000222298
8.89406e-05
0.000242894
0.00012551
0.000170673
0.000275472
1.03834e-05
-4.45936e-05
2.16942e-05
-7.11058e-05
3.18118e-05
-7.4848e-05
4.146e-05
-7.39751e-05
5.11154e-05
-7.29948e-05
6.09396e-05
-7.26737e-05
7.09746e-05
-7.2974e-05
8.12344e-05
-7.37132e-05
9.17325e-05
-7.46802e-05
0.000102488
-7.56306e-05
0.000113533
-7.62638e-05
0.000124926
-7.61795e-05
0.000136695
-7.4718e-05
0.000148687
-7.08138e-05
0.000160519
-6.32143e-05
0.000171745
-5.0982e-05
0.00018221
-3.39031e-05
0.000192069
-1.20502e-05
0.000201961
1.40478e-05
0.000213213
4.33308e-05
0.000227343
7.48108e-05
0.000245285
0.000107568
0.000143108
0.00027285
1.05792e-05
-5.51728e-05
2.06925e-05
-8.12191e-05
2.97269e-05
-8.38825e-05
3.86563e-05
-8.29045e-05
4.78358e-05
-8.21743e-05
5.73188e-05
-8.21567e-05
6.70801e-05
-8.27353e-05
7.70884e-05
-8.37215e-05
8.73177e-05
-8.49095e-05
9.7746e-05
-8.60589e-05
0.000108374
-8.68922e-05
0.000119297
-8.71023e-05
0.000130655
-8.6076e-05
0.000142362
-8.25206e-05
0.000153969
-7.48215e-05
0.000164911
-6.19241e-05
0.000175126
-4.41174e-05
0.000184759
-2.16831e-05
0.000194373
4.43362e-06
0.000205243
3.24602e-05
0.000218703
6.13515e-05
0.000235832
9.04389e-05
0.000119805
0.000259135
1.00398e-05
-6.52126e-05
1.91108e-05
-9.02901e-05
2.73872e-05
-9.21589e-05
3.5794e-05
-9.13113e-05
4.459e-05
-9.09703e-05
5.37642e-05
-9.13309e-05
6.32416e-05
-9.22128e-05
7.29438e-05
-9.34236e-05
8.27907e-05
-9.47564e-05
9.26834e-05
-9.59516e-05
0.000102514
-9.67226e-05
0.000112336
-9.69246e-05
0.000122407
-9.61467e-05
0.000132702
-9.28157e-05
0.000142707
-8.48261e-05
0.000151698
-7.0916e-05
0.000160044
-5.24632e-05
0.000168115
-2.97541e-05
0.000176046
-3.49715e-06
0.000186007
2.24992e-05
0.000198837
4.85212e-05
0.000215538
7.37378e-05
9.85349e-05
0.000236809
8.87783e-06
-7.40904e-05
1.77119e-05
-9.91242e-05
2.55382e-05
-9.99852e-05
3.34811e-05
-9.92542e-05
4.18966e-05
-9.93857e-05
5.0737e-05
-0.000100171
5.9867e-05
-0.000101343
6.91523e-05
-0.000102709
7.84577e-05
-0.000104062
8.76278e-05
-0.000105122
9.64033e-05
-0.000105498
0.000104634
-0.000105155
0.000112591
-0.000104103
0.00012021
-0.000100435
0.000127029
-9.16447e-05
0.000132267
-7.61542e-05
0.000137456
-5.76522e-05
0.000143316
-3.56143e-05
0.000150732
-1.09123e-05
0.000161857
1.13741e-05
0.000175612
3.4766e-05
0.000192523
5.68263e-05
7.759e-05
0.000213468
9.65328e-06
-8.37437e-05
1.82605e-05
-0.000107731
2.47704e-05
-0.000106495
3.19023e-05
-0.000106386
3.98191e-05
-0.000107303
4.82288e-05
-0.000108581
5.68851e-05
-0.000109999
6.55869e-05
-0.000111411
7.41767e-05
-0.000112652
8.25025e-05
-0.000113447
9.02855e-05
-0.000113281
9.72179e-05
-0.000112088
0.00010314
-0.000110025
0.000107605
-0.000104901
0.000111226
-9.52658e-05
0.000111886
-7.68142e-05
0.000113693
-5.94594e-05
0.000117898
-3.98185e-05
0.00012676
-1.97749e-05
0.000138511
-3.77228e-07
0.000152837
2.04401e-05
0.000170211
3.94523e-05
5.61555e-05
0.000191646
1.91585e-05
-0.000102902
2.26707e-05
-0.000111244
2.49783e-05
-0.000108803
3.09551e-05
-0.000112363
3.83663e-05
-0.000114714
4.63265e-05
-0.000116541
5.45023e-05
-0.000118175
6.28521e-05
-0.000119761
7.12015e-05
-0.000121001
7.94531e-05
-0.000121699
8.74606e-05
-0.000121289
9.44258e-05
-0.000119053
9.82745e-05
-0.000113874
9.89835e-05
-0.00010561
0.000107904
-0.000104186
0.000127809
-9.67188e-05
0.000146011
-7.7662e-05
0.000162179
-5.59862e-05
0.000176075
-3.36704e-05
0.000188562
-1.28649e-05
0.000199906
9.09624e-06
0.000206995
3.23637e-05
5.21532e-05
0.000210997
4.62528e-05
-0.000149155
3.1894e-05
-9.68848e-05
2.70822e-05
-0.000103991
3.23974e-05
-0.000117678
3.97602e-05
-0.000122077
4.77533e-05
-0.000124534
5.56614e-05
-0.000126083
6.38542e-05
-0.000127953
7.19534e-05
-0.0001291
8.03281e-05
-0.000130074
9.05209e-05
-0.000131481
0.000105489
-0.000134021
0.000119383
-0.000127768
0.000133771
-0.000119997
0.000143227
-0.000113642
0.000151664
-0.000105156
0.000163824
-8.98226e-05
0.000178477
-7.06394e-05
0.000194991
-5.01839e-05
0.000211953
-2.98276e-05
0.000229702
-8.6527e-06
0.000248998
1.30683e-05
3.46955e-05
0.000266456
2.94146e-05
-0.000178569
3.03944e-05
-9.78652e-05
3.20468e-05
-0.000105643
3.73821e-05
-0.000123013
4.588e-05
-0.000130574
5.56972e-05
-0.000134351
6.70129e-05
-0.000137399
7.88665e-05
-0.000139807
9.11089e-05
-0.000141342
0.000103211
-0.000142176
0.000114014
-0.000142285
0.000121078
-0.000141085
0.00012883
-0.00013552
0.000136692
-0.00012786
0.000142906
-0.000119856
0.000147632
-0.000109882
0.000154433
-9.66228e-05
0.00016476
-8.09666e-05
0.000179051
-6.44754e-05
0.000197336
-4.81124e-05
0.000220406
-3.17222e-05
0.000248135
-1.46607e-05
4.21376e-06
0.000278616
-1.091e-05
-0.000167659
1.38304e-05
-0.000122606
3.22841e-05
-0.000124097
4.40186e-05
-0.000134748
5.46252e-05
-0.000141181
6.48954e-05
-0.000144622
7.46967e-05
-0.0001472
8.40198e-05
-0.00014913
9.28637e-05
-0.000150186
0.00010087
-0.000150182
0.000107383
-0.000148798
0.000111653
-0.000145355
0.000115342
-0.000139209
0.000118583
-0.000131101
0.000120678
-0.00012195
0.000122366
-0.00011157
0.000125677
-9.99339e-05
0.000132409
-8.76983e-05
0.000143832
-7.58989e-05
0.000161008
-6.52881e-05
0.000185141
-5.58548e-05
0.00021693
-4.64499e-05
-3.42093e-05
0.000255353
-8.57319e-06
-0.000159086
1.35465e-05
-0.000144725
3.16579e-05
-0.000142208
4.32141e-05
-0.000146304
5.20818e-05
-0.000150049
6.01032e-05
-0.000152643
6.74809e-05
-0.000154578
7.41651e-05
-0.000155814
8.00104e-05
-0.000156032
8.47077e-05
-0.00015488
8.78915e-05
-0.000151982
8.95068e-05
-0.000146971
9.01128e-05
-0.000139815
8.99804e-05
-0.000130968
8.91685e-05
-0.000121139
8.85212e-05
-0.000110923
8.94707e-05
-0.000100883
9.35943e-05
-9.18218e-05
0.000102385
-8.46896e-05
0.00011742
-8.03234e-05
0.000140514
-7.89482e-05
0.000173081
-7.90169e-05
-7.53079e-05
0.000214179
2.20075e-06
-0.000161286
1.44843e-05
-0.000157009
2.66208e-05
-0.000154345
3.55731e-05
-0.000155257
4.24883e-05
-0.000156964
4.83688e-05
-0.000158524
5.34506e-05
-0.00015966
5.76771e-05
-0.000160041
6.08915e-05
-0.000159246
6.28837e-05
-0.000156872
6.3495e-05
-0.000152593
6.27897e-05
-0.000146265
6.10623e-05
-0.000138087
5.86765e-05
-0.000128583
5.60243e-05
-0.000118486
5.38582e-05
-0.000108757
5.32552e-05
-0.000100281
5.54478e-05
-9.40144e-05
6.17789e-05
-9.10208e-05
7.38402e-05
-9.23847e-05
9.34824e-05
-9.85906e-05
0.000122252
-0.000107787
-0.00011276
0.000159704
4.07085e-06
-0.000165357
1.16014e-05
-0.00016454
1.90453e-05
-0.000161789
2.5117e-05
-0.000161328
2.99212e-05
-0.000161768
3.37673e-05
-0.00016237
3.67398e-05
-0.000162632
3.87741e-05
-0.000162075
3.97543e-05
-0.000160226
3.95713e-05
-0.000156689
3.81964e-05
-0.000151218
3.57483e-05
-0.000143817
3.24779e-05
-0.000134817
2.87564e-05
-0.000124861
2.50866e-05
-0.000114817
2.20743e-05
-0.000105744
2.04748e-05
-9.8681e-05
2.11199e-05
-9.46595e-05
2.49026e-05
-9.48036e-05
3.28047e-05
-0.000100287
4.58157e-05
-0.000111602
6.46176e-05
-0.000126589
-0.000137174
8.90322e-05
2.88087e-06
-0.000168238
6.6995e-06
-0.000168358
1.08181e-05
-0.000165907
1.42934e-05
-0.000164803
1.6961e-05
-0.000164436
1.88209e-05
-0.00016423
1.98387e-05
-0.00016365
1.99413e-05
-0.000162178
1.90574e-05
-0.000159343
1.71588e-05
-0.00015479
1.43021e-05
-0.000148362
1.06539e-05
-0.000140169
6.48282e-06
-0.000130646
2.14216e-06
-0.000120521
-1.93869e-06
-0.000110736
-5.31851e-06
-0.000102365
-7.55364e-06
-9.64458e-05
-8.24193e-06
-9.39712e-05
-7.09313e-06
-9.59525e-05
-4.0631e-06
-0.000103317
5.35839e-07
-0.000116201
6.22422e-06
-0.000132277
-0.000143542
1.25916e-05
6.27616e-07
-0.000168866
1.66782e-06
-0.000169398
3.1075e-06
-0.000167347
4.26792e-06
-0.000165964
4.90299e-06
-0.000165071
4.88861e-06
-0.000164215
4.13372e-06
-0.000162895
2.57023e-06
-0.000160614
1.70514e-07
-0.000156943
-3.0319e-06
-0.000151588
-6.92118e-06
-0.000144472
-1.12957e-05
-0.000135794
-1.5888e-05
-0.000126054
-2.03913e-05
-0.000116017
-2.44938e-05
-0.000106634
-2.79395e-05
-9.89189e-05
-3.056e-05
-9.38253e-05
-3.23328e-05
-9.21985e-05
-3.35095e-05
-9.47758e-05
-3.47918e-05
-0.000102035
-3.73326e-05
-0.00011366
-4.2251e-05
-0.000127359
-0.000136378
-4.94148e-05
-1.66605e-06
-0.0001672
-2.80417e-06
-0.00016826
-3.58596e-06
-0.000166565
-4.44538e-06
-0.000165104
-5.64023e-06
-0.000163876
-7.33493e-06
-0.000162521
-9.6334e-06
-0.000160597
-1.2585e-05
-0.000157663
-1.61776e-05
-0.00015335
-2.03289e-05
-0.000147437
-2.48847e-05
-0.000139917
-2.96313e-05
-0.000131048
-3.43251e-05
-0.00012136
-3.87304e-05
-0.000111612
-4.26622e-05
-0.000102702
-4.60358e-05
-9.55453e-05
-4.89021e-05
-9.0959e-05
-5.15103e-05
-8.95905e-05
-5.44242e-05
-9.18618e-05
-5.86373e-05
-9.78216e-05
-6.54685e-05
-0.000106829
-7.58575e-05
-0.00011697
-0.000124068
-8.81677e-05
-3.54373e-06
-0.000163656
-6.50385e-06
-0.0001653
-9.10036e-06
-0.000163968
-1.1656e-05
-0.000162549
-1.44149e-05
-0.000161117
-1.75392e-05
-0.000159396
-2.11196e-05
-0.000157016
-2.51784e-05
-0.000153604
-2.96685e-05
-0.00014886
-3.44753e-05
-0.00014263
-3.94272e-05
-0.000134965
-4.43194e-05
-0.000126155
-4.89497e-05
-0.00011673
-5.3161e-05
-0.000107401
-5.68828e-05
-9.898e-05
-6.01689e-05
-9.22593e-05
-6.32257e-05
-8.79022e-05
-6.64594e-05
-8.63568e-05
-7.05484e-05
-8.77727e-05
-7.64925e-05
-9.18776e-05
-8.54984e-05
-9.78234e-05
-9.84199e-05
-0.000104049
-0.000108454
-0.000114033
-4.9775e-06
-0.000158678
-9.38328e-06
-0.000160894
-1.34109e-05
-0.000159941
-1.73328e-05
-0.000158627
-2.13628e-05
-0.000157087
-2.56406e-05
-0.000155118
-3.02321e-05
-0.000152424
-3.51318e-05
-0.000148704
-4.02662e-05
-0.000143726
-4.55032e-05
-0.000137393
-5.0671e-05
-0.000129797
-5.55877e-05
-0.000121239
-6.01001e-05
-0.000112217
-6.4124e-05
-0.000103377
-6.76806e-05
-9.54234e-05
-7.09222e-05
-8.90177e-05
-7.41494e-05
-8.4675e-05
-7.78339e-05
-8.26723e-05
-8.2649e-05
-8.29577e-05
-8.94756e-05
-8.50509e-05
-9.93275e-05
-8.79715e-05
-0.000113051
-9.03257e-05
-9.09936e-05
-0.000130512
-5.98583e-06
-0.000152693
-1.14645e-05
-0.000155415
-1.65734e-05
-0.000154832
-2.15428e-05
-0.000153658
-2.65511e-05
-0.000152079
-3.17074e-05
-0.000149962
-3.70508e-05
-0.000147081
-4.2552e-05
-0.000143203
-4.81208e-05
-0.000138157
-5.36203e-05
-0.000131894
-5.889e-05
-0.000124527
-6.37783e-05
-0.00011635
-6.81788e-05
-0.000107817
-7.20673e-05
-9.94887e-05
-7.55296e-05
-9.19611e-05
-7.87775e-05
-8.57698e-05
-8.21541e-05
-8.12985e-05
-8.61348e-05
-7.86916e-05
-9.13254e-05
-7.77672e-05
-9.84434e-05
-7.7933e-05
-0.000108268
-7.81466e-05
-0.000121537
-7.70569e-05
-7.37874e-05
-0.000138743
-6.61099e-06
-0.000146082
-1.28186e-05
-0.000149207
-1.86918e-05
-0.000148959
-2.44141e-05
-0.000147935
-3.01254e-05
-0.000146368
-3.59038e-05
-0.000144184
-4.17634e-05
-0.000141221
-4.76579e-05
-0.000137309
-5.34896e-05
-0.000132326
-5.91258e-05
-0.000126258
-6.44244e-05
-0.000119228
-6.92647e-05
-0.00011151
-7.35807e-05
-0.000103501
-7.73914e-05
-9.5678e-05
-8.08216e-05
-8.8531e-05
-8.41094e-05
-8.2482e-05
-8.76017e-05
-7.78063e-05
-9.17399e-05
-7.45535e-05
-9.7037e-05
-7.24699e-05
-0.000104043
-7.0927e-05
-0.000113302
-6.88879e-05
-0.000125335
-6.50243e-05
-5.84053e-05
-0.000140717
-6.90511e-06
-0.000139176
-1.35401e-05
-0.000142572
-1.98982e-05
-0.000142601
-2.61107e-05
-0.000141723
-3.22782e-05
-0.0001402
-3.84495e-05
-0.000138012
-4.4619e-05
-0.000135052
-5.07298e-05
-0.000131198
-5.66837e-05
-0.000126372
-6.23588e-05
-0.000120582
-6.76337e-05
-0.000113954
-7.2416e-05
-0.000106728
-7.6671e-05
-9.92458e-05
-8.04452e-05
-9.19038e-05
-8.3881e-05
-8.50952e-05
-8.7218e-05
-7.91452e-05
-9.0781e-05
-7.42433e-05
-9.49578e-05
-7.03768e-05
-0.000100163
-6.72644e-05
-0.000106795
-6.42948e-05
-0.000115189
-6.04945e-05
-0.000125613
-5.46006e-05
-4.56155e-05
-0.000138403
-6.92999e-06
-0.000132246
-1.37377e-05
-0.000135764
-2.03406e-05
-0.000135998
-2.68155e-05
-0.000135248
-3.32248e-05
-0.000133791
-3.95917e-05
-0.000131645
-4.58954e-05
-0.000128748
-5.20741e-05
-0.000125019
-5.80344e-05
-0.000120411
-6.36682e-05
-0.000114949
-6.88748e-05
-0.000108747
-7.35858e-05
-0.000102017
-7.77883e-05
-9.50433e-05
-8.15435e-05
-8.81485e-05
-8.49956e-05
-8.16432e-05
-8.83685e-05
-7.57725e-05
-9.19506e-05
-7.06611e-05
-9.60684e-05
-6.62592e-05
-0.000101045
-6.22876e-05
-0.000107153
-5.81872e-05
-0.000114561
-5.30866e-05
-0.000123323
-4.58382e-05
-3.54517e-05
-0.000133487
-6.75162e-06
-0.000125495
-1.35246e-05
-0.000128991
-2.01712e-05
-0.000129351
-2.67162e-05
-0.000128703
-3.31867e-05
-0.00012732
-3.95839e-05
-0.000125248
-4.58761e-05
-0.000122456
-5.20006e-05
-0.000118895
-5.78718e-05
-0.00011454
-6.33964e-05
-0.000109424
-6.84927e-05
-0.000103651
-7.31111e-05
-9.73985e-05
-7.7253e-05
-9.09013e-05
-8.09843e-05
-8.44171e-05
-8.44402e-05
-7.81873e-05
-8.78196e-05
-7.23933e-05
-9.13678e-05
-6.71127e-05
-9.53498e-05
-6.2277e-05
-0.00010001
-5.76276e-05
-0.000105522
-5.26755e-05
-0.000111937
-4.66713e-05
-0.00011916
-3.86149e-05
-2.75859e-05
-0.000127026
-6.43231e-06
-0.000119062
-1.30086e-05
-0.000122415
-1.95359e-05
-0.000122824
-2.59935e-05
-0.000122245
-3.23776e-05
-0.000120936
-3.86708e-05
-0.000118955
-4.48339e-05
-0.000116293
-5.08058e-05
-0.000112923
-5.651e-05
-0.000108836
-6.18676e-05
-0.000104066
-6.68132e-05
-9.8705e-05
-7.13113e-05
-9.29004e-05
-7.53716e-05
-8.68411e-05
-7.90579e-05
-8.07308e-05
-8.24901e-05
-7.4755e-05
-8.58374e-05
-6.9046e-05
-8.93016e-05
-6.36485e-05
-9.3091e-05
-5.84874e-05
-9.73837e-05
-5.33349e-05
-0.000102281
-4.77779e-05
-0.00010776
-4.11923e-05
-0.00011364
-3.27356e-05
-2.15922e-05
-0.000119633
-6.02465e-06
-0.000113037
-1.22851e-05
-0.000116154
-1.85665e-05
-0.000116542
-2.48127e-05
-0.000115999
-3.09939e-05
-0.000114755
-3.70778e-05
-0.000112871
-4.30201e-05
-0.000110351
-4.87623e-05
-0.000107181
-5.42374e-05
-0.000103361
-5.93797e-05
-9.89237e-05
-6.41369e-05
-9.39477e-05
-6.8484e-05
-8.85532e-05
-7.24341e-05
-8.28908e-05
-7.60449e-05
-7.71199e-05
-7.94183e-05
-7.13815e-05
-8.26933e-05
-6.5771e-05
-8.60301e-05
-6.03116e-05
-8.95878e-05
-5.49298e-05
-9.3491e-05
-4.94316e-05
-9.77908e-05
-4.34781e-05
-0.00010242
-3.65626e-05
-0.000107162
-2.79939e-05
-1.70733e-05
-0.000111681
-5.56955e-06
-0.000107468
-1.14338e-05
-0.000110289
-1.73766e-05
-0.000110599
-2.33182e-05
-0.000110058
-2.92087e-05
-0.000108864
-3.50041e-05
-0.000107075
-4.06564e-05
-0.000104698
-4.61109e-05
-0.000101726
-5.13093e-05
-9.81621e-05
-5.6197e-05
-9.40359e-05
-6.07327e-05
-8.9412e-05
-6.48983e-05
-8.43875e-05
-6.87076e-05
-7.90814e-05
-7.22096e-05
-7.36177e-05
-7.5488e-05
-6.81032e-05
-7.86529e-05
-6.26061e-05
-8.18281e-05
-5.71362e-05
-8.51307e-05
-5.16271e-05
-8.86442e-05
-4.59182e-05
-9.2385e-05
-3.97373e-05
-9.62659e-05
-3.26816e-05
-0.000100065
-2.4195e-05
-1.36924e-05
-0.000103445
-5.09682e-06
-0.000102371
-1.05179e-05
-0.000104868
-1.60605e-05
-0.000105056
-2.16323e-05
-0.000104486
-2.71693e-05
-0.000103327
-3.26192e-05
-0.000101626
-3.79321e-05
-9.93857e-05
-4.30569e-05
-9.66015e-05
-4.79434e-05
-9.32758e-05
-5.25463e-05
-8.94331e-05
-5.68328e-05
-8.51256e-05
-6.07895e-05
-8.04307e-05
-6.44288e-05
-7.54422e-05
-6.77906e-05
-7.02559e-05
-7.09408e-05
-6.4953e-05
-7.39642e-05
-5.95827e-05
-7.69531e-05
-5.41472e-05
-7.99909e-05
-4.85893e-05
-8.31297e-05
-4.27795e-05
-8.63637e-05
-3.65033e-05
-8.95998e-05
-2.94455e-05
-9.26298e-05
-2.11649e-05
-1.11778e-05
-9.51442e-05
-4.62641e-06
-9.77442e-05
-9.58474e-06
-9.991e-05
-1.46928e-05
-9.99484e-05
-1.98537e-05
-9.9325e-05
-2.49959e-05
-9.8185e-05
-3.00621e-05
-9.65595e-05
-3.50019e-05
-9.4446e-05
-3.97684e-05
-9.1835e-05
-4.43182e-05
-8.8726e-05
-4.86142e-05
-8.51373e-05
-5.26297e-05
-8.11101e-05
-5.63544e-05
-7.67058e-05
-5.97985e-05
-7.19982e-05
-6.29926e-05
-6.70619e-05
-6.59868e-05
-6.19588e-05
-6.88443e-05
-5.67251e-05
-7.16316e-05
-5.13599e-05
-7.44052e-05
-4.58158e-05
-7.71941e-05
-3.99906e-05
-7.99795e-05
-3.37179e-05
-8.26707e-05
-2.67542e-05
-8.5083e-05
-1.87526e-05
-9.3158e-06
-8.6945e-05
-4.16961e-06
-9.35746e-05
-8.66712e-06
-9.54123e-05
-1.33285e-05
-9.52872e-05
-1.80582e-05
-9.45954e-05
-2.2782e-05
-9.34613e-05
-2.74412e-05
-9.19004e-05
-3.19869e-05
-8.99004e-05
-3.63768e-05
-8.74451e-05
-4.0574e-05
-8.4529e-05
-4.45475e-05
-8.11639e-05
-4.82759e-05
-7.73817e-05
-5.17506e-05
-7.32309e-05
-5.49787e-05
-6.87701e-05
-5.79827e-05
-6.40579e-05
-6.07991e-05
-5.91425e-05
-6.34729e-05
-5.40512e-05
-6.60502e-05
-4.87826e-05
-6.85668e-05
-4.32992e-05
-7.10355e-05
-3.75219e-05
-7.34301e-05
-3.13233e-05
-7.56675e-05
-2.45167e-05
-7.75893e-05
-1.68308e-05
-7.94016e-06
-7.8965e-05
-3.73023e-06
-8.98444e-05
-7.78386e-06
-9.13587e-05
-1.20042e-05
-9.10669e-05
-1.62989e-05
-9.03007e-05
-2.0595e-05
-8.91653e-05
-2.48358e-05
-8.76598e-05
-2.89763e-05
-8.57599e-05
-3.29797e-05
-8.34418e-05
-3.68147e-05
-8.0694e-05
-4.04562e-05
-7.75224e-05
-4.38866e-05
-7.39513e-05
-4.7098e-05
-7.00194e-05
-5.00944e-05
-6.57738e-05
-5.2891e-05
-6.12613e-05
-5.55131e-05
-5.65205e-05
-5.79911e-05
-5.15732e-05
-6.0355e-05
-4.64187e-05
-6.26255e-05
-4.10288e-05
-6.48039e-05
-3.53434e-05
-6.68611e-05
-2.9266e-05
-6.87237e-05
-2.26541e-05
-7.02589e-05
-1.52955e-05
-6.92282e-06
-7.12763e-05
-3.30599e-06
-8.65382e-05
-6.9428e-06
-8.77219e-05
-1.07405e-05
-8.72691e-05
-1.46085e-05
-8.64326e-05
-1.84781e-05
-8.52958e-05
-2.2298e-05
-8.38398e-05
-2.60298e-05
-8.2028e-05
-2.96429e-05
-7.98286e-05
-3.31123e-05
-7.72247e-05
-3.64173e-05
-7.42174e-05
-3.95432e-05
-7.08253e-05
-4.24826e-05
-6.708e-05
-4.52364e-05
-6.30201e-05
-4.78137e-05
-5.86842e-05
-5.02302e-05
-5.4104e-05
-5.25051e-05
-4.92982e-05
-5.46559e-05
-4.42679e-05
-5.66923e-05
-3.89925e-05
-5.86084e-05
-3.34274e-05
-6.03745e-05
-2.74998e-05
-6.19275e-05
-2.11011e-05
-6.31588e-05
-1.40642e-05
-6.16783e-06
-6.39138e-05
-2.89216e-06
-8.36461e-05
-6.14661e-06
-8.44675e-05
-9.5475e-06
-8.38681e-05
-1.30035e-05
-8.29766e-05
-1.64536e-05
-8.18458e-05
-1.98558e-05
-8.04375e-05
-2.31808e-05
-7.8703e-05
-2.64054e-05
-7.66041e-05
-2.95101e-05
-7.412e-05
-3.24785e-05
-7.12489e-05
-3.52981e-05
-6.80057e-05
-3.79612e-05
-6.44169e-05
-4.04661e-05
-6.05153e-05
-4.28166e-05
-5.63338e-05
-4.50211e-05
-5.18996e-05
-4.70897e-05
-4.72296e-05
-4.90308e-05
-4.23268e-05
-5.08459e-05
-3.71774e-05
-5.25246e-05
-3.17487e-05
-5.40385e-05
-2.59858e-05
-5.53343e-05
-1.98053e-05
-5.63246e-05
-1.30739e-05
-5.60563e-06
-5.68869e-05
-2.48942e-06
-8.11568e-05
-5.40142e-06
-8.15555e-05
-8.43201e-06
-8.08375e-05
-1.14901e-05
-7.99185e-05
-1.45281e-05
-7.88078e-05
-1.7518e-05
-7.74474e-05
-2.04413e-05
-7.57796e-05
-2.32827e-05
-7.37626e-05
-2.6028e-05
-7.13747e-05
-2.86639e-05
-6.8613e-05
-3.11792e-05
-6.54904e-05
-3.35656e-05
-6.20305e-05
-3.58192e-05
-5.82618e-05
-3.79398e-05
-5.42133e-05
-3.99298e-05
-4.99095e-05
-4.17929e-05
-4.53665e-05
-4.35303e-05
-4.05894e-05
-4.51378e-05
-3.55699e-05
-4.66019e-05
-3.02845e-05
-4.78961e-05
-2.46915e-05
-4.8976e-05
-1.87253e-05
-4.97727e-05
-1.22772e-05
-5.18736e-06
-5.0191e-05
-2.11503e-06
-7.90417e-05
-4.72539e-06
-7.8945e-05
-7.40409e-06
-7.81587e-05
-1.00697e-05
-7.72528e-05
-1.2698e-05
-7.61794e-05
-1.52793e-05
-7.48658e-05
-1.78073e-05
-7.32515e-05
-2.02737e-05
-7.12962e-05
-2.2668e-05
-6.89804e-05
-2.49786e-05
-6.63024e-05
-2.71947e-05
-6.32745e-05
-2.93073e-05
-5.99179e-05
-3.13105e-05
-5.62586e-05
-3.32012e-05
-5.23226e-05
-3.49781e-05
-4.81326e-05
-3.66397e-05
-4.37048e-05
-3.81822e-05
-3.90468e-05
-3.9597e-05
-3.4155e-05
-4.08685e-05
-2.90129e-05
-4.19716e-05
-2.35884e-05
-4.2869e-05
-1.78279e-05
-4.35073e-05
-1.1639e-05
-4.87909e-06
-4.38155e-05
-1.80833e-06
-7.72333e-05
-4.15188e-06
-7.66013e-05
-6.47821e-06
-7.58322e-05
-8.74065e-06
-7.49903e-05
-1.09524e-05
-7.39675e-05
-1.31259e-05
-7.26921e-05
-1.52652e-05
-7.11121e-05
-1.73664e-05
-6.9195e-05
-1.94201e-05
-6.69266e-05
-2.14148e-05
-6.43078e-05
-2.33387e-05
-6.13506e-05
-2.51821e-05
-5.80745e-05
-2.69379e-05
-5.45028e-05
-2.86011e-05
-5.06593e-05
-3.01682e-05
-4.65654e-05
-3.16349e-05
-4.22381e-05
-3.2994e-05
-3.76877e-05
-3.42337e-05
-3.29152e-05
-3.53359e-05
-2.79106e-05
-3.62754e-05
-2.26488e-05
-3.70194e-05
-1.70839e-05
-3.75264e-05
-1.1132e-05
-4.65772e-06
-3.77477e-05
-1.62501e-06