/*--------------------------------*- C++ -*----------------------------------*\
| =========                 |                                                 |
| \\      /  F ield         | OpenFOAM: The Open Source CFD Toolbox           |
|  \\    /   O peration     | Version:  v2012                                 |
|   \\  /    A nd           | Website:  www.openfoam.com                      |
|    \\/     M anipulation  |                                                 |
\*---------------------------------------------------------------------------*/
FoamFile
{
    version     2.0;
    format      ascii;
    class       volVectorField;
    location    "0.25";
    object      U;
}
// * * * * * * * * * * * * * * * * * * * * * * * * * * * * * * * * * * * * * //

dimensions      [0 1 -1 0 0 0 0];


internalField   nonuniform List<vector> 
2268
(
(-0.0397674 0.0121112 0)
(-0.0387692 -0.00955136 0)
(0.0111131 -0.0193992 0)
(0.0723072 -0.0220546 0)
(0.136928 -0.0218318 0)
(0.201257 -0.0209902 0)
(0.264351 -0.0203367 0)
(0.326673 -0.0199836 0)
(0.388931 -0.0198433 0)
(0.45147 -0.0197757 0)
(0.514116 -0.0196075 0)
(0.576069 -0.0191235 0)
(0.635744 -0.0180442 0)
(0.690468 -0.0159972 0)
(0.736078 -0.0124072 0)
(0.766559 -0.0059891 0)
(0.771041 0.00575083 0)
(0.727689 0.0242736 0)
(0.620951 0.0486338 0)
(0.436567 0.0727397 0)
(0.195037 0.0830723 0)
(-0.138598 0.036454 0)
(-0.141563 -0.0972676 0)
(-0.0180204 0.0250654 0)
(0.00469626 -0.0191983 0)
(0.0551952 -0.0398732 0)
(0.115316 -0.0464251 0)
(0.178481 -0.0472671 0)
(0.241794 -0.0466011 0)
(0.304549 -0.0460216 0)
(0.36704 -0.0458732 0)
(0.429697 -0.0460365 0)
(0.492667 -0.0462191 0)
(0.555661 -0.0460257 0)
(0.617837 -0.04495 0)
(0.677636 -0.0423278 0)
(0.73255 -0.0372682 0)
(0.778942 -0.0285024 0)
(0.811504 -0.0139347 0)
(0.825948 0.00979799 0)
(0.817888 0.0458227 0)
(0.772812 0.0947993 0)
(0.662836 0.149905 0)
(0.47213 0.189601 0)
(0.135575 0.155699 0)
(0.0520962 -0.074581 0)
(0.00296327 0.0210021 0)
(0.0326979 -0.0375128 0)
(0.0851626 -0.0651987 0)
(0.144497 -0.0740321 0)
(0.205946 -0.0753529 0)
(0.267653 -0.0746472 0)
(0.329201 -0.0740183 0)
(0.390818 -0.0739546 0)
(0.452778 -0.074286 0)
(0.515105 -0.0745764 0)
(0.577446 -0.0742276 0)
(0.638953 -0.0724652 0)
(0.698129 -0.068273 0)
(0.752632 -0.0603108 0)
(0.799122 -0.0467867 0)
(0.832993 -0.0253415 0)
(0.848974 0.00743532 0)
(0.842271 0.0560307 0)
(0.806893 0.123859 0)
(0.730383 0.206829 0)
(0.6004 0.281915 0)
(0.341469 0.264939 0)
(0.171037 0.0168992 0)
(0.0134329 0.00907538 0)
(0.0515384 -0.0594916 0)
(0.107486 -0.0920726 0)
(0.167066 -0.102386 0)
(0.22737 -0.103918 0)
(0.287705 -0.103135 0)
(0.348053 -0.10249 0)
(0.408684 -0.102539 0)
(0.469806 -0.103041 0)
(0.531382 -0.103421 0)
(0.593038 -0.102886 0)
(0.65395 -0.10041 0)
(0.712705 -0.0946427 0)
(0.767119 -0.0838296 0)
(0.814101 -0.065705 0)
(0.849525 -0.0374286 0)
(0.868431 0.00468128 0)
(0.865911 0.0651546 0)
(0.837154 0.148075 0)
(0.774961 0.251755 0)
(0.67093 0.357906 0)
(0.467304 0.374432 0)
(0.254333 0.159037 0)
(0.0178534 -0.00748498 0)
(0.0635937 -0.0847494 0)
(0.123641 -0.120116 0)
(0.184224 -0.130941 0)
(0.243974 -0.132363 0)
(0.303304 -0.131483 0)
(0.362638 -0.130899 0)
(0.422363 -0.131141 0)
(0.482687 -0.131877 0)
(0.543563 -0.132394 0)
(0.604634 -0.131724 0)
(0.665137 -0.128601 0)
(0.723765 -0.121371 0)
(0.778498 -0.10789 0)
(0.826479 -0.0854657 0)
(0.863958 -0.0508342 0)
(0.88643 -7.58164e-05 0)
(0.889364 0.0713637 0)
(0.868281 0.167742 0)
(0.817418 0.288868 0)
(0.726473 0.421898 0)
(0.556146 0.48264 0)
(0.316322 0.338175 0)
(0.0200476 -0.0267266 0)
(0.071276 -0.112595 0)
(0.134867 -0.149218 0)
(0.196572 -0.159573 0)
(0.25607 -0.160474 0)
(0.314668 -0.159401 0)
(0.37318 -0.158902 0)
(0.432119 -0.159392 0)
(0.491726 -0.160418 0)
(0.551984 -0.161139 0)
(0.612585 -0.160421 0)
(0.672855 -0.156785 0)
(0.731618 -0.148287 0)
(0.787032 -0.132426 0)
(0.836462 -0.106117 0)
(0.87649 -0.0657385 0)
(0.903074 -0.00717801 0)
(0.912216 0.0741398 0)
(0.899837 0.182664 0)
(0.861014 0.319815 0)
(0.782364 0.478117 0)
(0.63946 0.589563 0)
(0.373969 0.553124 0)
(0.0216386 -0.0476641 0)
(0.0763299 -0.142253 0)
(0.142315 -0.179169 0)
(0.20475 -0.188304 0)
(0.263985 -0.188325 0)
(0.321963 -0.186946 0)
(0.379774 -0.186522 0)
(0.438016 -0.187284 0)
(0.496974 -0.188644 0)
(0.556673 -0.189634 0)
(0.616881 -0.188974 0)
(0.677038 -0.184987 0)
(0.736123 -0.17546 0)
(0.792484 -0.157555 0)
(0.843711 -0.127822 0)
(0.886687 -0.082339 0)
(0.917839 -0.01687 0)
(0.933796 0.073146 0)
(0.931226 0.192366 0)
(0.906476 0.343997 0)
(0.844638 0.525903 0)
(0.73836 0.694601 0)
(0.446112 0.798653 0)
(0.023229 -0.0697542 0)
(0.0797856 -0.173147 0)
(0.146865 -0.209623 0)
(0.209402 -0.217008 0)
(0.268158 -0.215901 0)
(0.325497 -0.214123 0)
(0.38265 -0.213747 0)
(0.440243 -0.214782 0)
(0.498588 -0.216497 0)
(0.557761 -0.21781 0)
(0.617614 -0.217309 0)
(0.677718 -0.213141 0)
(0.737229 -0.202848 0)
(0.794701 -0.183265 0)
(0.847942 -0.150608 0)
(0.894118 -0.100718 0)
(0.930121 -0.0293402 0)
(0.953294 0.0679636 0)
(0.961472 0.195867 0)
(0.953086 0.358937 0)
(0.915814 0.559494 0)
(0.859755 0.783504 0)
(0.536344 1.11813 0)
(0.00964505 0.000728207 0)
(-0.0474449 0.0212853 0)
(-0.132285 0.0165063 0)
(-0.161265 0.00522593 0)
(-0.159042 -0.00260991 0)
(-0.139037 -0.00668571 0)
(-0.111652 -0.00777478 0)
(-0.0831362 -0.00748231 0)
(-0.0569095 -0.00652582 0)
(-0.0349175 -0.00526722 0)
(-0.0178663 -0.00399381 0)
(-0.00563357 -0.00281955 0)
(0.00236353 -0.00178494 0)
(0.00660238 -0.000827625 0)
(0.00756927 5.48648e-05 0)
(0.00595369 0.000626403 0)
(0.00290816 0.000724596 0)
(-0.00032281 0.000134874 0)
(-0.00122599 -0.000819015 0)
(-0.0341381 0.0173336 0)
(-0.100552 0.0489987 0)
(-0.169322 0.0325135 0)
(-0.183451 0.00872715 0)
(-0.174907 -0.00768197 0)
(-0.153476 -0.0160869 0)
(-0.12513 -0.0189336 0)
(-0.0955641 -0.0184448 0)
(-0.0679132 -0.0162235 0)
(-0.0442767 -0.0131371 0)
(-0.0254399 -0.00985147 0)
(-0.0115245 -0.0068105 0)
(-0.00214358 -0.00413885 0)
(0.00331104 -0.00183299 0)
(0.00550783 9.42591e-05 0)
(0.00527159 0.00140517 0)
(0.00364694 0.00185257 0)
(0.00115725 0.00128734 0)
(-0.000486218 5.42681e-05 0)
(-0.060115 0.0536373 0)
(-0.131601 0.0771129 0)
(-0.185559 0.0449615 0)
(-0.193756 0.00950284 0)
(-0.182801 -0.014344 0)
(-0.159518 -0.0265536 0)
(-0.130449 -0.0309376 0)
(-0.100598 -0.0303047 0)
(-0.0726895 -0.0269156 0)
(-0.0486216 -0.0220842 0)
(-0.0291449 -0.0168182 0)
(-0.0144757 -0.0118263 0)
(-0.00437103 -0.00740057 0)
(0.00174822 -0.00362555 0)
(0.00463688 -0.000590711 0)
(0.00515334 0.00156988 0)
(0.00423236 0.00251095 0)
(0.00212256 0.00200775 0)
(0.000360539 0.000242047 0)
(-0.077613 0.0995587 0)
(-0.158176 0.10429 0)
(-0.202467 0.0550895 0)
(-0.204357 0.00874793 0)
(-0.189421 -0.0222064 0)
(-0.163205 -0.0379187 0)
(-0.132726 -0.0434805 0)
(-0.102373 -0.0424966 0)
(-0.0744202 -0.0378586 0)
(-0.0503611 -0.0312972 0)
(-0.0307698 -0.0240812 0)
(-0.0158254 -0.0171325 0)
(-0.00535578 -0.0109134 0)
(0.00114462 -0.0056273 0)
(0.00444222 -0.00142085 0)
(0.00539591 0.00157911 0)
(0.00485108 0.00306302 0)
(0.00295602 0.0027795 0)
(0.00106246 0.000958323 0)
(-0.095119 0.155477 0)
(-0.188171 0.130769 0)
(-0.223085 0.0624925 0)
(-0.216718 0.00547092 0)
(-0.196109 -0.031988 0)
(-0.165664 -0.0505878 0)
(-0.132911 -0.0567353 0)
(-0.101643 -0.0550074 0)
(-0.0736236 -0.0489114 0)
(-0.0498181 -0.0405572 0)
(-0.0304944 -0.0314178 0)
(-0.0156719 -0.022558 0)
(-0.00516905 -0.0145717 0)
(0.00144435 -0.00777811 0)
(0.00489753 -0.00238479 0)
(0.00602065 0.00147316 0)
(0.00559171 0.00353313 0)
(0.0037279 0.0035839 0)
(0.00154526 0.00202776 0)
(-0.11905 0.225196 0)
(-0.225393 0.156187 0)
(-0.247797 0.0666665 0)
(-0.230724 -0.00101161 0)
(-0.202904 -0.0441551 0)
(-0.16699 -0.0648466 0)
(-0.131119 -0.0708093 0)
(-0.0985055 -0.0677828 0)
(-0.0703306 -0.0599217 0)
(-0.0469421 -0.0496615 0)
(-0.0282 -0.0386098 0)
(-0.013866 -0.0278991 0)
(-0.00367275 -0.0182044 0)
(0.00275654 -0.00993943 0)
(0.00609143 -0.00337418 0)
(0.00711463 0.00133416 0)
(0.00654393 0.00401334 0)
(0.00448302 0.0044687 0)
(0.00186575 0.00333801 0)
(-0.152693 0.315934 0)
(-0.268616 0.175796 0)
(-0.27472 0.0668149 0)
(-0.244899 -0.0113166 0)
(-0.209022 -0.0591208 0)
(-0.166828 -0.0810192 0)
(-0.127185 -0.0859206 0)
(-0.0928848 -0.0809191 0)
(-0.0644773 -0.0708769 0)
(-0.0416354 -0.0585189 0)
(-0.0237443 -0.045522 0)
(-0.0102382 -0.0330128 0)
(-0.000701978 -0.0216791 0)
(0.00522465 -0.0119932 0)
(0.00814455 -0.00428374 0)
(0.00879083 0.00127295 0)
(0.00781802 0.00458397 0)
(0.00531447 0.00549272 0)
(0.0021349 0.00482842 0)
(-0.256982 0.306552 0)
(-0.312431 0.170499 0)
(-0.298797 0.0594469 0)
(-0.256262 -0.0268697 0)
(-0.212708 -0.0775975 0)
(-0.164188 -0.099622 0)
(-0.120585 -0.102406 0)
(-0.0845662 -0.0945721 0)
(-0.0560229 -0.0817969 0)
(-0.0339173 -0.0670649 0)
(-0.0171366 -0.0520214 0)
(-0.00477212 -0.0377125 0)
(0.00376954 -0.0247876 0)
(0.00888121 -0.0137354 0)
(0.0111141 -0.00492262 0)
(0.0111248 0.00148135 0)
(0.0095051 0.00543225 0)
(0.00635497 0.00685172 0)
(0.00248188 0.00656822 0)
(0.0256212 -0.106181 0)
(0.0832535 -0.223135 0)
(0.149938 -0.257515 0)
(0.211522 -0.261602 0)
(0.269131 -0.258607 0)
(0.325418 -0.256154 0)
(0.381632 -0.255819 0)
(0.438345 -0.257264 0)
(0.495871 -0.259551 0)
(0.554357 -0.261442 0)
(0.613795 -0.261358 0)
(0.673973 -0.257211 0)
(0.734349 -0.246181 0)
(0.793806 -0.224609 0)
(0.850469 -0.188202 0)
(0.901872 -0.132524 0)
(0.945592 -0.0534839 0)
(0.980123 0.0527367 0)
(1.00557 0.189979 0)
(1.02487 0.362787 0)
(1.04089 0.575697 0)
(1.0919 0.83352 0)
(1.12602 1.29515 0)
(0.0287021 -0.157845 0)
(0.0860678 -0.290984 0)
(0.149053 -0.320674 0)
(0.206881 -0.320156 0)
(0.261687 -0.315117 0)
(0.316029 -0.312198 0)
(0.370844 -0.312203 0)
(0.426479 -0.314407 0)
(0.483154 -0.317697 0)
(0.541036 -0.32072 0)
(0.600244 -0.321775 0)
(0.660847 -0.31857 0)
(0.722739 -0.307869 0)
(0.785249 -0.285304 0)
(0.846782 -0.245861 0)
(0.905047 -0.184916 0)
(0.958124 -0.0991609 0)
(1.00555 0.0136427 0)
(1.04926 0.154806 0)
(1.09506 0.324992 0)
(1.15235 0.523703 0)
(1.23526 0.749009 0)
(1.37128 1.04307 0)
(0.0323032 -0.212619 0)
(0.08713 -0.354939 0)
(0.144063 -0.378374 0)
(0.196834 -0.374391 0)
(0.248292 -0.368668 0)
(0.300429 -0.366233 0)
(0.353689 -0.367142 0)
(0.408127 -0.370446 0)
(0.463802 -0.374982 0)
(0.520799 -0.3794 0)
(0.579237 -0.382011 0)
(0.639377 -0.380524 0)
(0.701585 -0.371419 0)
(0.765689 -0.349485 0)
(0.830217 -0.30871 0)
(0.892606 -0.244244 0)
(0.950953 -0.154026 0)
(1.00513 -0.0376563 0)
(1.05707 0.103237 0)
(1.11208 0.264828 0)
(1.17813 0.44218 0)
(1.25861 0.628061 0)
(1.37841 0.826037 0)
(0.0350247 -0.269864 0)
(0.0851109 -0.412952 0)
(0.135372 -0.429838 0)
(0.183333 -0.424297 0)
(0.231739 -0.419331 0)
(0.281796 -0.418207 0)
(0.333472 -0.420453 0)
(0.386554 -0.425045 0)
(0.440886 -0.430859 0)
(0.496337 -0.436602 0)
(0.552788 -0.440724 0)
(0.610465 -0.441259 0)
(0.670199 -0.434705 0)
(0.732424 -0.41477 0)
(0.79566 -0.373888 0)
(0.856672 -0.306789 0)
(0.913426 -0.213381 0)
(0.966196 -0.0944565 0)
(1.01671 0.0461119 0)
(1.07015 0.199941 0)
(1.13413 0.362225 0)
(1.21335 0.527304 0)
(1.32044 0.696479 0)
(0.0329384 -0.326373 0)
(0.0793013 -0.463978 0)
(0.124641 -0.475684 0)
(0.16914 -0.470439 0)
(0.215218 -0.467346 0)
(0.263494 -0.468162 0)
(0.313642 -0.472085 0)
(0.365205 -0.478103 0)
(0.41777 -0.48514 0)
(0.470861 -0.491923 0)
(0.523814 -0.497006 0)
(0.576395 -0.49909 0)
(0.629684 -0.49514 0)
(0.684684 -0.477466 0)
(0.739777 -0.43621 0)
(0.791113 -0.365355 0)
(0.837218 -0.268736 0)
(0.880236 -0.148113 0)
(0.922146 -0.00765225 0)
(0.969258 0.140477 0)
(1.02884 0.291512 0)
(1.10644 0.441713 0)
(1.20876 0.591053 0)
(0.0235683 -0.378004 0)
(0.0735929 -0.511218 0)
(0.116208 -0.518922 0)
(0.157801 -0.514846 0)
(0.201684 -0.514458 0)
(0.248133 -0.517842 0)
(0.296523 -0.523813 0)
(0.3461 -0.53133 0)
(0.396169 -0.539304 0)
(0.445932 -0.546226 0)
(0.494198 -0.550356 0)
(0.53997 -0.551207 0)
(0.583609 -0.547031 0)
(0.625734 -0.528478 0)
(0.664126 -0.483116 0)
(0.696803 -0.403453 0)
(0.724541 -0.297943 0)
(0.751049 -0.168678 0)
(0.783579 -0.0212103 0)
(0.836811 0.121331 0)
(0.902122 0.256092 0)
(0.98328 0.382469 0)
(1.08636 0.503939 0)
(0.0231959 -0.42752 0)
(0.0807633 -0.561029 0)
(0.114847 -0.562187 0)
(0.15089 -0.559318 0)
(0.191694 -0.561898 0)
(0.235829 -0.567552 0)
(0.281844 -0.574719 0)
(0.328591 -0.582389 0)
(0.375221 -0.589159 0)
(0.420742 -0.593403 0)
(0.463991 -0.592705 0)
(0.504409 -0.587013 0)
(0.54023 -0.577362 0)
(0.568253 -0.553026 0)
(0.585649 -0.499833 0)
(0.600781 -0.405376 0)
(0.606517 -0.297101 0)
(0.61405 -0.176353 0)
(0.650815 -0.0467444 0)
(0.709612 0.0751712 0)
(0.77853 0.208035 0)
(0.86207 0.334094 0)
(0.968186 0.449668 0)
(0.0868148 -0.484224 0)
(0.119612 -0.607097 0)
(0.121087 -0.594883 0)
(0.147615 -0.595428 0)
(0.184978 -0.60078 0)
(0.226799 -0.606978 0)
(0.270289 -0.612977 0)
(0.314707 -0.617868 0)
(0.359788 -0.621402 0)
(0.404204 -0.62177 0)
(0.447144 -0.614444 0)
(0.491216 -0.592742 0)
(0.524297 -0.577779 0)
(0.533211 -0.553569 0)
(0.521862 -0.509202 0)
(0.643121 -0.451135 0)
(0.738378 -0.368931 0)
(0.82692 -0.27642 0)
(0.907349 -0.188865 0)
(0.982099 -0.104173 0)
(1.0464 -0.0110875 0)
(1.09805 0.0752069 0)
(1.13634 0.153906 0)
(0.289224 -0.618247 0)
(0.204319 -0.608311 0)
(0.135819 -0.581683 0)
(0.156259 -0.607384 0)
(0.192248 -0.618104 0)
(0.234644 -0.620503 0)
(0.277349 -0.617337 0)
(0.320768 -0.624748 0)
(0.364868 -0.632857 0)
(0.407458 -0.640884 0)
(0.450488 -0.654636 0)
(0.530994 -0.698705 0)
(0.605536 -0.670415 0)
(0.68075 -0.61502 0)
(0.740289 -0.614737 0)
(0.791535 -0.557073 0)
(0.845612 -0.463017 0)
(0.915632 -0.349501 0)
(0.99922 -0.228219 0)
(1.09019 -0.103338 0)
(1.18427 0.0234892 0)
(1.28463 0.142884 0)
(1.38358 0.2518 0)
(0.319862 -0.904012 0)
(0.119067 -0.494236 0)
(0.144636 -0.546013 0)
(0.185773 -0.647178 0)
(0.222046 -0.687383 0)
(0.27089 -0.71674 0)
(0.32898 -0.747847 0)
(0.391663 -0.769912 0)
(0.456742 -0.782247 0)
(0.52248 -0.789906 0)
(0.583599 -0.791791 0)
(0.632655 -0.765636 0)
(0.671735 -0.722815 0)
(0.713722 -0.675973 0)
(0.751621 -0.639445 0)
(0.779616 -0.587827 0)
(0.807818 -0.510203 0)
(0.851627 -0.415123 0)
(0.917007 -0.312817 0)
(1.0045 -0.209353 0)
(1.11511 -0.10302 0)
(1.25239 0.00973105 0)
(1.41184 0.128442 0)
(-0.122979 -1.05186 0)
(0.0180436 -0.514785 0)
(0.129288 -0.590431 0)
(0.208519 -0.70669 0)
(0.266052 -0.756036 0)
(0.320935 -0.775921 0)
(0.374919 -0.78599 0)
(0.426535 -0.791802 0)
(0.475599 -0.794212 0)
(0.521373 -0.793876 0)
(0.56069 -0.789527 0)
(0.589642 -0.775336 0)
(0.610562 -0.744634 0)
(0.628866 -0.703445 0)
(0.642893 -0.656951 0)
(0.651765 -0.601548 0)
(0.662635 -0.534082 0)
(0.687357 -0.458827 0)
(0.734704 -0.382227 0)
(0.810499 -0.308456 0)
(0.920129 -0.236562 0)
(1.07045 -0.161799 0)
(1.26262 -0.0741478 0)
(-0.0848994 -0.858905 0)
(0.0140909 -0.726477 0)
(0.129954 -0.726077 0)
(0.205322 -0.760889 0)
(0.257432 -0.786104 0)
(0.301842 -0.802323 0)
(0.343167 -0.814645 0)
(0.381157 -0.823619 0)
(0.415087 -0.827691 0)
(0.443695 -0.825173 0)
(0.465029 -0.814066 0)
(0.477879 -0.791818 0)
(0.483383 -0.756274 0)
(0.484188 -0.710506 0)
(0.481213 -0.658608 0)
(0.475962 -0.602412 0)
(0.474713 -0.543714 0)
(0.486424 -0.486476 0)
(0.519486 -0.435794 0)
(0.581909 -0.395552 0)
(0.682436 -0.366159 0)
(0.831059 -0.340714 0)
(1.03317 -0.298054 0)
(-0.00894326 -0.862749 0)
(0.0386051 -0.822609 0)
(0.114617 -0.808401 0)
(0.169801 -0.818101 0)
(0.211051 -0.831079 0)
(0.24489 -0.842038 0)
(0.2743 -0.850492 0)
(0.299472 -0.855082 0)
(0.319674 -0.853689 0)
(0.333821 -0.844184 0)
(0.340838 -0.824642 0)
(0.340461 -0.79382 0)
(0.333575 -0.752162 0)
(0.321908 -0.702187 0)
(0.307922 -0.647904 0)
(0.293705 -0.593712 0)
(0.284808 -0.543734 0)
(0.287658 -0.502868 0)
(0.309174 -0.476532 0)
(0.35718 -0.470005 0)
(0.440909 -0.48556 0)
(0.570162 -0.514476 0)
(0.749343 -0.523493 0)
(0.00869755 -0.884114 0)
(0.040606 -0.874433 0)
(0.0837356 -0.858367 0)
(0.120059 -0.858029 0)
(0.148967 -0.862933 0)
(0.172053 -0.868479 0)
(0.190398 -0.87222 0)
(0.20397 -0.871751 0)
(0.212192 -0.864563 0)
(0.214385 -0.848441 0)
(0.210128 -0.82183 0)
(0.199656 -0.784366 0)
(0.183993 -0.73758 0)
(0.164662 -0.684658 0)
(0.144191 -0.629911 0)
(0.125354 -0.578977 0)
(0.112052 -0.537276 0)
(0.108625 -0.51032 0)
(0.119766 -0.504226 0)
(0.150781 -0.525491 0)
(0.207175 -0.577173 0)
(0.292577 -0.648243 0)
(0.403654 -0.695571 0)
(0.00576673 -0.903361 0)
(0.0257662 -0.90268 0)
(0.0475305 -0.88807 0)
(0.068232 -0.883157 0)
(0.0848611 -0.882873 0)
(0.0970964 -0.883698 0)
(0.104912 -0.882712 0)
(0.10801 -0.87711 0)
(0.105957 -0.864277 0)
(0.0984428 -0.84216 0)
(0.0855238 -0.809672 0)
(0.0678111 -0.767145 0)
(0.0464726 -0.716697 0)
(0.0231637 -0.662114 0)
(2.07786e-05 -0.608337 0)
(-0.0205539 -0.561253 0)
(-0.036068 -0.526605 0)
(-0.0441397 -0.510022 0)
(-0.0427345 -0.517531 0)
(-0.0305129 -0.555137 0)
(-0.00813318 -0.624623 0)
(0.0191065 -0.712935 0)
(0.0438486 -0.773205 0)
(-0.00114632 -0.913548 0)
(0.00616812 -0.913903 0)
(0.0129073 -0.902099 0)
(0.020292 -0.895118 0)
(0.0253723 -0.891435 0)
(0.0272081 -0.888361 0)
(0.0252521 -0.883054 0)
(0.0190801 -0.872722 0)
(0.00841344 -0.854898 0)
(-0.00674792 -0.827827 0)
(-0.0259963 -0.790878 0)
(-0.0484556 -0.744921 0)
(-0.0728532 -0.692523 0)
(-0.0976313 -0.637791 0)
(-0.121076 -0.585919 0)
(-0.14158 -0.542622 0)
(-0.157902 -0.513353 0)
(-0.169396 -0.503173 0)
(-0.176448 -0.516914 0)
(-0.181197 -0.558423 0)
(-0.189126 -0.627065 0)
(-0.210133 -0.709574 0)
(-0.250205 -0.763533 0)
(-0.00808186 -0.909119 0)
(-0.0124678 -0.913286 0)
(-0.0172846 -0.903265 0)
(-0.0212402 -0.895441 0)
(-0.0264863 -0.889533 0)
(-0.03406 -0.883383 0)
(-0.0446822 -0.874429 0)
(-0.0587672 -0.860121 0)
(-0.0764215 -0.838284 0)
(-0.0973865 -0.807532 0)
(-0.121002 -0.76766 0)
(-0.146246 -0.719934 0)
(-0.171859 -0.667184 0)
(-0.196525 -0.613584 0)
(-0.219058 -0.564176 0)
(-0.238663 -0.524217 0)
(-0.255152 -0.498513 0)
(-0.269213 -0.491109 0)
(-0.282851 -0.505091 0)
(-0.30004 -0.541735 0)
(-0.327654 -0.598227 0)
(-0.374954 -0.663027 0)
(-0.44262 -0.706953 0)
(-0.0136653 -0.894226 0)
(-0.0279102 -0.901708 0)
(-0.0421797 -0.893595 0)
(-0.0555018 -0.885755 0)
(-0.0695329 -0.878453 0)
(-0.0851668 -0.869993 0)
(-0.103098 -0.858182 0)
(-0.123638 -0.840819 0)
(-0.146719 -0.816101 0)
(-0.171886 -0.78302 0)
(-0.198331 -0.741724 0)
(-0.225 -0.693728 0)
(-0.25076 -0.641928 0)
(-0.274613 -0.590336 0)
(-0.295903 -0.543592 0)
(-0.314525 -0.506324 0)
(-0.331103 -0.482524 0)
(-0.347203 -0.475106 0)
(-0.365655 -0.485506 0)
(-0.390923 -0.512936 0)
(-0.429368 -0.553227 0)
(-0.48857 -0.597295 0)
(-0.569207 -0.630087 0)
(-0.01781 -0.870579 0)
(-0.0398285 -0.881295 0)
(-0.0615702 -0.87523 0)
(-0.0823772 -0.867836 0)
(-0.103536 -0.859732 0)
(-0.125718 -0.84964 0)
(-0.149496 -0.83577 0)
(-0.175044 -0.816309 0)
(-0.202141 -0.789831 0)
(-0.230204 -0.755676 0)
(-0.25837 -0.714251 0)
(-0.285641 -0.667184 0)
(-0.311075 -0.617271 0)
(-0.334004 -0.5682 0)
(-0.354228 -0.52407 0)
(-0.372169 -0.488801 0)
(-0.388994 -0.465551 0)
(-0.406743 -0.456216 0)
(-0.428484 -0.460948 0)
(-0.458426 -0.477561 0)
(-0.501808 -0.501022 0)
(-0.564723 -0.523627 0)
(-0.649547 -0.538091 0)
(-0.0205996 -0.840504 0)
(-0.0483305 -0.854168 0)
(-0.0756907 -0.85015 0)
(-0.102212 -0.843447 0)
(-0.12886 -0.834972 0)
(-0.156069 -0.823836 0)
(-0.184257 -0.808642 0)
(-0.213464 -0.78796 0)
(-0.243355 -0.760717 0)
(-0.273285 -0.726536 0)
(-0.302405 -0.685994 0)
(-0.329826 -0.640715 0)
(-0.354818 -0.593282 0)
(-0.377005 -0.546959 0)
(-0.396534 -0.505251 0)
(-0.414177 -0.471369 0)
(-0.4314 -0.447708 0)
(-0.450403 -0.435347 0)
(-0.47413 -0.433561 0)
(-0.506196 -0.439341 0)
(-0.550659 -0.447141 0)
(-0.612046 -0.449642 0)
(-0.693319 -0.442078 0)
(-0.0221709 -0.806135 0)
(-0.0537266 -0.822256 0)
(-0.0850235 -0.820151 0)
(-0.115636 -0.814248 0)
(-0.146242 -0.805718 0)
(-0.177046 -0.794025 0)
(-0.208316 -0.778138 0)
(-0.239979 -0.756976 0)
(-0.271633 -0.729771 0)
(-0.302621 -0.696367 0)
(-0.332156 -0.657422 0)
(-0.359483 -0.614474 0)
(-0.384068 -0.569825 0)
(-0.405769 -0.526278 0)
(-0.424962 -0.486746 0)
(-0.442609 -0.453788 0)
(-0.460276 -0.42915 0)
(-0.480108 -0.413305 0)
(-0.504732 -0.40501 0)
(-0.537062 -0.400888 0)
(-0.580097 -0.395254 0)
(-0.636858 -0.380856 0)
(-0.709552 -0.35292 0)
(-0.0226905 -0.769373 0)
(-0.056426 -0.787285 0)
(-0.0901861 -0.786833 0)
(-0.123452 -0.781741 0)
(-0.156641 -0.773379 0)
(-0.189756 -0.761518 0)
(-0.22293 -0.745447 0)
(-0.25601 -0.724389 0)
(-0.288563 -0.697824 0)
(-0.319962 -0.665752 0)
(-0.349508 -0.628851 0)
(-0.376582 -0.588517 0)
(-0.400813 -0.546741 0)
(-0.422225 -0.505871 0)
(-0.441323 -0.468271 0)
(-0.459133 -0.435932 0)
(-0.477177 -0.410077 0)
(-0.49741 -0.390768 0)
(-0.522062 -0.376513 0)
(-0.553368 -0.363914 0)
(-0.5934 -0.347494 0)
(-0.643924 -0.320212 0)
(-0.705718 -0.276793 0)
(-0.0223724 -0.731823 0)
(-0.0569083 -0.75075 0)
(-0.0918729 -0.751594 0)
(-0.126549 -0.74725 0)
(-0.161126 -0.739201 0)
(-0.195439 -0.727466 0)
(-0.229509 -0.711599 0)
(-0.263128 -0.691071 0)
(-0.295864 -0.665559 0)
(-0.327146 -0.635161 0)
(-0.35637 -0.600533 0)
(-0.383044 -0.562898 0)
(-0.406924 -0.523939 0)
(-0.428134 -0.485579 0)
(-0.447234 -0.4497 0)
(-0.465218 -0.417816 0)
(-0.483479 -0.390751 0)
(-0.503712 -0.368307 0)
(-0.527735 -0.348943 0)
(-0.557189 -0.32947 0)
(-0.593395 -0.304882 0)
(-0.637185 -0.268641 0)
(-0.687987 -0.215315 0)
(-0.021458 -0.694754 0)
(-0.0556814 -0.713897 0)
(-0.0907997 -0.715625 0)
(-0.125839 -0.711908 0)
(-0.160797 -0.70425 0)
(-0.195373 -0.692847 0)
(-0.229497 -0.677459 0)
(-0.262931 -0.657751 0)
(-0.295263 -0.633542 0)
(-0.325988 -0.604991 0)
(-0.354599 -0.572699 0)
(-0.380711 -0.537712 0)
(-0.404173 -0.501421 0)
(-0.425162 -0.465378 0)
(-0.444229 -0.431052 0)
(-0.462285 -0.399574 0)
(-0.480543 -0.371469 0)
(-0.500418 -0.3464 0)
(-0.523343 -0.3229 0)
(-0.55047 -0.298131 0)
(-0.582546 -0.26771 0)
(-0.619784 -0.225833 0)
(-0.660705 -0.167299 0)
(-0.0201743 -0.659091 0)
(-0.0532311 -0.677725 0)
(-0.087651 -0.679911 0)
(-0.1222 -0.676659 0)
(-0.156713 -0.669412 0)
(-0.19079 -0.658468 0)
(-0.22429 -0.643735 0)
(-0.256955 -0.62502 0)
(-0.288409 -0.60224 0)
(-0.318213 -0.57558 0)
(-0.345951 -0.545573 0)
(-0.371325 -0.513094 0)
(-0.394247 -0.479275 0)
(-0.414911 -0.445348 0)
(-0.433821 -0.412446 0)
(-0.451774 -0.381398 0)
(-0.469787 -0.352518 0)
(-0.489003 -0.325407 0)
(-0.510516 -0.298751 0)
(-0.535092 -0.270117 0)
(-0.563075 -0.235806 0)
(-0.594305 -0.190856 0)
(-0.626867 -0.130555 0)
(-0.018702 -0.625444 0)
(-0.0499815 -0.64299 0)
(-0.0830405 -0.645233 0)
(-0.116427 -0.642261 0)
(-0.149844 -0.635394 0)
(-0.182824 -0.624971 0)
(-0.215169 -0.610989 0)
(-0.246613 -0.593347 0)
(-0.276816 -0.572026 0)
(-0.305404 -0.547214 0)
(-0.332041 -0.519368 0)
(-0.356497 -0.489207 0)
(-0.378725 -0.45764 0)
(-0.398911 -0.425634 0)
(-0.417493 -0.394056 0)
(-0.435138 -0.363502 0)
(-0.452672 -0.334145 0)
(-0.470994 -0.305577 0)
(-0.490908 -0.276664 0)
(-0.51289 -0.245389 0)
(-0.537013 -0.208719 0)
(-0.562927 -0.162536 0)
(-0.588612 -0.102743 0)
(-0.0171675 -0.594166 0)
(-0.0462775 -0.610223 0)
(-0.077492 -0.612175 0)
(-0.109214 -0.609295 0)
(-0.141046 -0.602744 0)
(-0.172478 -0.592848 0)
(-0.203268 -0.579646 0)
(-0.233152 -0.56309 0)
(-0.261821 -0.543193 0)
(-0.288964 -0.520127 0)
(-0.314307 -0.494275 0)
(-0.337676 -0.46622 0)
(-0.359048 -0.436682 0)
(-0.378587 -0.406416 0)
(-0.396655 -0.37608 0)
(-0.413791 -0.346102 0)
(-0.430645 -0.316562 0)
(-0.4479 -0.287076 0)
(-0.466133 -0.256695 0)
(-0.485604 -0.223786 0)
(-0.506216 -0.185921 0)
(-0.527552 -0.139763 0)
(-0.547681 -0.0818464 0)
(-0.0156487 -0.565414 0)
(-0.042382 -0.579759 0)
(-0.0714342 -0.581145 0)
(-0.101143 -0.57818 0)
(-0.131043 -0.571859 0)
(-0.160603 -0.562459 0)
(-0.189554 -0.550021 0)
(-0.217633 -0.534514 0)
(-0.244566 -0.515959 0)
(-0.27009 -0.494504 0)
(-0.293987 -0.470459 0)
(-0.316122 -0.444292 0)
(-0.336485 -0.416569 0)
(-0.355212 -0.387876 0)
(-0.372593 -0.358713 0)
(-0.389043 -0.329388 0)
(-0.405058 -0.299927 0)
(-0.421142 -0.269993 0)
(-0.43769 -0.238808 0)
(-0.454814 -0.205075 0)
(-0.472321 -0.166883 0)
(-0.489798 -0.121571 0)
(-0.505509 -0.0662615 0)
(-0.0141836 -0.539216 0)
(-0.0384816 -0.551765 0)
(-0.0652011 -0.552395 0)
(-0.0926825 -0.549197 0)
(-0.120426 -0.543015 0)
(-0.147898 -0.534056 0)
(-0.174816 -0.522332 0)
(-0.200925 -0.507804 0)
(-0.225983 -0.490483 0)
(-0.249767 -0.470482 0)
(-0.272101 -0.448051 0)
(-0.292882 -0.423558 0)
(-0.312104 -0.397448 0)
(-0.329875 -0.370176 0)
(-0.346415 -0.342121 0)
(-0.362035 -0.313511 0)
(-0.377099 -0.284346 0)
(-0.391962 -0.254342 0)
(-0.406882 -0.222879 0)
(-0.421872 -0.188943 0)
(-0.43669 -0.151047 0)
(-0.450968 -0.107093 0)
(-0.463212 -0.0547099 0)
(-0.0127796 -0.515521 0)
(-0.0346924 -0.526279 0)
(-0.0590335 -0.526046 0)
(-0.0841887 -0.522507 0)
(-0.109652 -0.516384 0)
(-0.134908 -0.507801 0)
(-0.159673 -0.496724 0)
(-0.183709 -0.483085 0)
(-0.206801 -0.46687 0)
(-0.228765 -0.448161 0)
(-0.249456 -0.427149 0)
(-0.268791 -0.404126 0)
(-0.286765 -0.379441 0)
(-0.30346 -0.353449 0)
(-0.319034 -0.326441 0)
(-0.333712 -0.298587 0)
(-0.347748 -0.269881 0)
(-0.361382 -0.240096 0)
(-0.374766 -0.208748 0)
(-0.387849 -0.175055 0)
(-0.400376 -0.137875 0)
(-0.412038 -0.0955603 0)
(-0.421589 -0.0461669 0)
(-0.01142 -0.494237 0)
(-0.0310682 -0.503244 0)
(-0.0530834 -0.502107 0)
(-0.0759064 -0.49817 0)
(-0.0990502 -0.49205 0)
(-0.12203 -0.483786 0)
(-0.14458 -0.473283 0)
(-0.166485 -0.460433 0)
(-0.187562 -0.445192 0)
(-0.207657 -0.427606 0)
(-0.226653 -0.407824 0)
(-0.24448 -0.386077 0)
(-0.261129 -0.362641 0)
(-0.276654 -0.337796 0)
(-0.291166 -0.31177 0)
(-0.304819 -0.284695 0)
(-0.31778 -0.256566 0)
(-0.330199 -0.22721 0)
(-0.342152 -0.196258 0)
(-0.353548 -0.163114 0)
(-0.36414 -0.126907 0)
(-0.373681 -0.0863491 0)
(-0.381157 -0.0398436 0)
(-0.0100681 -0.475265 0)
(-0.0276161 -0.482537 0)
(-0.0474295 -0.480509 0)
(-0.067982 -0.476169 0)
(-0.0888261 -0.470032 0)
(-0.109523 -0.462046 0)
(-0.129837 -0.452047 0)
(-0.149591 -0.439885 0)
(-0.168635 -0.425483 0)
(-0.186843 -0.408859 0)
(-0.204117 -0.390126 0)
(-0.220398 -0.36947 0)
(-0.235669 -0.347116 0)
(-0.249961 -0.32329 0)
(-0.263344 -0.298175 0)
(-0.275914 -0.27188 0)
(-0.287774 -0.244405 0)
(-0.299006 -0.215622 0)
(-0.309633 -0.185256 0)
(-0.319541 -0.152858 0)
(-0.328502 -0.117766 0)
(-0.336324 -0.0789693 0)
(-0.342208 -0.0351523 0)
(-0.00867729 -0.458536 0)
(-0.0243284 -0.463992 0)
(-0.0421091 -0.461125 0)
(-0.0604884 -0.456435 0)
(-0.0790853 -0.450302 0)
(-0.0975214 -0.442574 0)
(-0.115613 -0.433019 0)
(-0.133225 -0.421446 0)
(-0.150242 -0.407753 0)
(-0.166566 -0.391934 0)
(-0.182115 -0.37408 0)
(-0.196835 -0.354343 0)
(-0.2107 -0.332915 0)
(-0.223721 -0.309982 0)
(-0.235934 -0.2857 0)
(-0.247391 -0.260161 0)
(-0.258146 -0.233376 0)
(-0.268231 -0.205255 0)
(-0.277629 -0.175594 0)
(-0.286222 -0.144058 0)
(-0.293799 -0.110137 0)
(-0.300222 -0.0730373 0)
(-0.304874 -0.0316596 0)
(-0.00723011 -0.44403 0)
(-0.021229 -0.447401 0)
(-0.0371625 -0.443805 0)
(-0.0534596 -0.438879 0)
(-0.0698603 -0.432811 0)
(-0.0860668 -0.425341 0)
(-0.101961 -0.416177 0)
(-0.117459 -0.405097 0)
(-0.132479 -0.391984 0)
(-0.146944 -0.376824 0)
(-0.160786 -0.35969 0)
(-0.17395 -0.340716 0)
(-0.186403 -0.320066 0)
(-0.198137 -0.297905 0)
(-0.209164 -0.27437 0)
(-0.219501 -0.249546 0)
(-0.229165 -0.223453 0)
(-0.238151 -0.196034 0)
(-0.246417 -0.167139 0)
(-0.253841 -0.136515 0)
(-0.260237 -0.103767 0)
(-0.265507 -0.0682569 0)
(-0.26919 -0.0290517 0)
(-0.00583897 -0.43173 0)
(-0.0184119 -0.43254 0)
(-0.0326728 -0.428413 0)
(-0.0469217 -0.423438 0)
(-0.061139 -0.417527 0)
(-0.075131 -0.410319 0)
(-0.088857 -0.401486 0)
(-0.10228 -0.390797 0)
(-0.115348 -0.378139 0)
(-0.127998 -0.363497 0)
(-0.140165 -0.346938 0)
(-0.151794 -0.328583 0)
(-0.162845 -0.30858 0)
(-0.173296 -0.287076 0)
(-0.183138 -0.264197 0)
(-0.192367 -0.240028 0)
(-0.200972 -0.214601 0)
(-0.208922 -0.187885 0)
(-0.216155 -0.159772 0)
(-0.222548 -0.130067 0)
(-0.227931 -0.0984563 0)
(-0.232238 -0.0644079 0)
(-0.23514 -0.0271093 0)
(-0.00488369 -0.421406 0)
(-0.0160323 -0.419216 0)
(-0.0287696 -0.414897 0)
(-0.0408987 -0.410124 0)
(-0.0528786 -0.404463 0)
(-0.0646427 -0.397499 0)
(-0.0762239 -0.388913 0)
(-0.0876208 -0.3785 0)
(-0.0987935 -0.366166 0)
(-0.109681 -0.351908 0)
(-0.120218 -0.335791 0)
(-0.130343 -0.317927 0)
(-0.14001 -0.298449 0)
(-0.149189 -0.277492 0)
(-0.157862 -0.255176 0)
(-0.166008 -0.231589 0)
(-0.173601 -0.206777 0)
(-0.180592 -0.180732 0)
(-0.186904 -0.153383 0)
(-0.192404 -0.124575 0)
(-0.196931 -0.0940459 0)
(-0.20043 -0.0613301 0)
(-0.202682 -0.0256858 0)
(-0.00505235 -0.412207 0)
(-0.0142529 -0.407281 0)
(-0.0255614 -0.403349 0)
(-0.0353711 -0.399057 0)
(-0.0449943 -0.393686 0)
(-0.054499 -0.386887 0)
(-0.0639626 -0.378423 0)
(-0.0733893 -0.368148 0)
(-0.0827303 -0.356004 0)
(-0.0919134 -0.342001 0)
(-0.100863 -0.326206 0)
(-0.109514 -0.308717 0)
(-0.117816 -0.289654 0)
(-0.125737 -0.26914 0)
(-0.133255 -0.247288 0)
(-0.140349 -0.224193 0)
(-0.146985 -0.199919 0)
(-0.153108 -0.174484 0)
(-0.158627 -0.147848 0)
(-0.163398 -0.119895 0)
(-0.167241 -0.0903915 0)
(-0.170078 -0.0588995 0)
(-0.171776 -0.024687 0)
(-0.00727662 -0.402867 0)
(-0.0132753 -0.396471 0)
(-0.0230181 -0.393928 0)
(-0.0301935 -0.390376 0)
(-0.0373301 -0.385226 0)
(-0.0445702 -0.37843 0)
(-0.0519706 -0.369918 0)
(-0.0594992 -0.35963 0)
(-0.0670755 -0.347547 0)
(-0.0746055 -0.333687 0)
(-0.0820022 -0.318109 0)
(-0.0891959 -0.300895 0)
(-0.0961377 -0.282148 0)
(-0.102799 -0.261975 0)
(-0.109164 -0.240484 0)
(-0.115221 -0.217776 0)
(-0.120947 -0.193931 0)
(-0.126293 -0.169003 0)
(-0.13117 -0.142995 0)
(-0.135417 -0.115832 0)
(-0.138805 -0.0873136 0)
(-0.14117 -0.0569942 0)
(-0.142405 -0.0240561 0)
(-0.0129109 -0.394041 0)
(-0.0133274 -0.386818 0)
(-0.0209033 -0.38695 0)
(-0.0250804 -0.384263 0)
(-0.0296745 -0.379091 0)
(-0.0347267 -0.372041 0)
(-0.04017 -0.363283 0)
(-0.0458911 -0.352837 0)
(-0.051765 -0.340701 0)
(-0.0576759 -0.326889 0)
(-0.0635301 -0.31144 0)
(-0.0692592 -0.294416 0)
(-0.0748201 -0.275893 0)
(-0.0801929 -0.255964 0)
(-0.0853747 -0.234724 0)